nqpoint: 357    
npath: 7      
segment_nqpoint:
- 51
- 51
- 51
- 51
- 51
- 51
- 51
labels:
- [ '$\Gamma$', '$\mathrm{T}$' ]
- [ '$\mathrm{T}$', '$\mathrm{H_2}$' ]
- [ '$\mathrm{H_0}$', '$\mathrm{L}$' ]
- [ '$\mathrm{L}$', '$\Gamma$' ]
- [ '$\Gamma$', '$\mathrm{S_0}$' ]
- [ '$\mathrm{S_2}$', '$\mathrm{F}$' ]
- [ '$\mathrm{F}$', '$\Gamma$' ]
reciprocal_lattice:
- [   0.17565428,   0.10141404,   0.14341563 ] # a*
- [  -0.17565428,   0.10141404,   0.14341563 ] # b*
- [   0.00000000,  -0.20282809,   0.14341563 ] # c*
natom: 4      
lattice:
- [     2.846500590436917,     1.643427882137183,     2.324246942112054 ] # a
- [    -2.846500590436917,     1.643427882137183,     2.324246942112053 ] # b
- [    -0.000000000000000,    -3.286855764274366,     2.324246942112053 ] # c
points:
- symbol: Sc # 1
  coordinates: [  0.000000000000000,  0.000000000000000,  0.000000000000000 ]
  mass: 44.955912
- symbol: F # 2
  coordinates: [  0.500000000000000,  0.999992191581592,  0.000007808418409 ]
  mass: 18.998403
- symbol: F # 3
  coordinates: [  0.999992191581592,  0.000007808418409,  0.500000000000000 ]
  mass: 18.998403
- symbol: F # 4
  coordinates: [  0.000007808418409,  0.500000000000000,  0.999992191581592 ]
  mass: 18.998403

phonon:
- q-position: [    0.0000000,    0.0000000,    0.0000000 ]
  distance:    0.0000000
  band:
  - # 1
    frequency:   -0.0535079320
  - # 2
    frequency:   -0.0535079320
  - # 3
    frequency:    0.0051675109
  - # 4
    frequency:    3.9120086677
  - # 5
    frequency:    3.9126316723
  - # 6
    frequency:    3.9126316723
  - # 7
    frequency:    5.7546349824
  - # 8
    frequency:    5.7546349824
  - # 9
    frequency:    7.4991013520
  - # 10
    frequency:   13.7190100836
  - # 11
    frequency:   13.7190100836
  - # 12
    frequency:   20.0187144179

- q-position: [    0.0100000,    0.0100000,    0.0100000 ]
  distance:    0.0043025
  band:
  - # 1
    frequency:    0.2035950222
  - # 2
    frequency:    0.2038805922
  - # 3
    frequency:    0.2573645034
  - # 4
    frequency:    3.9102389493
  - # 5
    frequency:    3.9156500168
  - # 6
    frequency:    3.9156825950
  - # 7
    frequency:    5.7571397802
  - # 8
    frequency:    5.7571610477
  - # 9
    frequency:    7.5013803786
  - # 10
    frequency:   13.7193619747
  - # 11
    frequency:   13.7193643745
  - # 12
    frequency:   20.0161369184

- q-position: [    0.0200000,    0.0200000,    0.0200000 ]
  distance:    0.0086049
  band:
  - # 1
    frequency:    0.4176421281
  - # 2
    frequency:    0.4179180063
  - # 3
    frequency:    0.5148306763
  - # 4
    frequency:    3.9049338819
  - # 5
    frequency:    3.9247027321
  - # 6
    frequency:    3.9247677019
  - # 7
    frequency:    5.7647268639
  - # 8
    frequency:    5.7647692373
  - # 9
    frequency:    7.5082281056
  - # 10
    frequency:   13.7204266378
  - # 11
    frequency:   13.7204314173
  - # 12
    frequency:   20.0084542027

- q-position: [    0.0300000,    0.0300000,    0.0300000 ]
  distance:    0.0129074
  band:
  - # 1
    frequency:    0.6290860372
  - # 2
    frequency:    0.6293563711
  - # 3
    frequency:    0.7726523857
  - # 4
    frequency:    3.8961056327
  - # 5
    frequency:    3.9396884612
  - # 6
    frequency:    3.9397854562
  - # 7
    frequency:    5.7775503447
  - # 8
    frequency:    5.7776134952
  - # 9
    frequency:    7.5196767325
  - # 10
    frequency:   13.7222233811
  - # 11
    frequency:   13.7222304997
  - # 12
    frequency:   19.9958144201

- q-position: [    0.0400000,    0.0400000,    0.0400000 ]
  distance:    0.0172099
  band:
  - # 1
    frequency:    0.8394793653
  - # 2
    frequency:    0.8397432347
  - # 3
    frequency:    1.0309343459
  - # 4
    frequency:    3.8837741591
  - # 5
    frequency:    3.9604501985
  - # 6
    frequency:    3.9605786854
  - # 7
    frequency:    5.7958668504
  - # 8
    frequency:    5.7959502718
  - # 9
    frequency:    7.5357807899
  - # 10
    frequency:   13.7247829248
  - # 11
    frequency:   13.7247923218
  - # 12
    frequency:   19.9784605175

- q-position: [    0.0500000,    0.0500000,    0.0500000 ]
  distance:    0.0215123
  band:
  - # 1
    frequency:    1.0488055262
  - # 2
    frequency:    1.0490613840
  - # 3
    frequency:    1.2897312186
  - # 4
    frequency:    3.8679667377
  - # 5
    frequency:    3.9867940928
  - # 6
    frequency:    3.9869533889
  - # 7
    frequency:    5.8200346487
  - # 8
    frequency:    5.8201376429
  - # 9
    frequency:    7.5566184413
  - # 10
    frequency:   13.7281452837
  - # 11
    frequency:   13.7281568779
  - # 12
    frequency:   19.9567243802

- q-position: [    0.0600000,    0.0600000,    0.0600000 ]
  distance:    0.0258148
  band:
  - # 1
    frequency:    1.2566385805
  - # 2
    frequency:    1.2568846819
  - # 3
    frequency:    1.5490209594
  - # 4
    frequency:    3.8487173235
  - # 5
    frequency:    4.0185172123
  - # 6
    frequency:    4.0187065061
  - # 7
    frequency:    5.8505112126
  - # 8
    frequency:    5.8506328713
  - # 9
    frequency:    7.5822932970
  - # 10
    frequency:   13.7323569269
  - # 11
    frequency:   13.7323706167
  - # 12
    frequency:   19.9310188151

- q-position: [    0.0700000,    0.0700000,    0.0700000 ]
  distance:    0.0301173
  band:
  - # 1
    frequency:    1.4622611685
  - # 2
    frequency:    1.4624956505
  - # 3
    frequency:    1.8086873650
  - # 4
    frequency:    3.8260657586
  - # 5
    frequency:    4.0554451253
  - # 6
    frequency:    4.0556634968
  - # 7
    frequency:    5.8878481176
  - # 8
    frequency:    5.8879873035
  - # 9
    frequency:    7.6129366960
  - # 10
    frequency:   13.7374673319
  - # 11
    frequency:   13.7374829954
  - # 12
    frequency:   19.9018275661

- q-position: [    0.0800000,    0.0800000,    0.0800000 ]
  distance:    0.0344198
  band:
  - # 1
    frequency:    1.6646568503
  - # 2
    frequency:    1.6648777546
  - # 3
    frequency:    2.0685057569
  - # 4
    frequency:    3.8000568544
  - # 5
    frequency:    4.0974792689
  - # 6
    frequency:    4.0977257018
  - # 7
    frequency:    5.9326820236
  - # 8
    frequency:    5.9328373525
  - # 9
    frequency:    7.6487103431
  - # 10
    frequency:   13.7435250788
  - # 11
    frequency:   13.7435425738
  - # 12
    frequency:   19.8696935963

- q-position: [    0.0900000,    0.0900000,    0.0900000 ]
  distance:    0.0387222
  band:
  - # 1
    frequency:    1.8624775391
  - # 2
    frequency:    1.8626828374
  - # 3
    frequency:    2.3281315174
  - # 4
    frequency:    3.7707393748
  - # 5
    frequency:    4.1446518271
  - # 6
    frequency:    4.1449252030
  - # 7
    frequency:    5.9857205392
  - # 8
    frequency:    5.9858903674
  - # 9
    frequency:    7.6898090864
  - # 10
    frequency:   13.7505736478
  - # 11
    frequency:   13.7505928127
  - # 12
    frequency:   19.8352059298

- q-position: [    0.1000000,    0.1000000,    0.1000000 ]
  distance:    0.0430247
  band:
  - # 1
    frequency:    2.0540125641
  - # 2
    frequency:    2.0542002192
  - # 3
    frequency:    2.5870918207
  - # 4
    frequency:    3.7381649516
  - # 5
    frequency:    4.1971814112
  - # 6
    frequency:    4.1974804678
  - # 7
    frequency:    6.0477220190
  - # 8
    frequency:    6.0479044385
  - # 9
    frequency:    7.7364634657
  - # 10
    frequency:   13.7586471009
  - # 11
    frequency:   13.7586677553
  - # 12
    frequency:   19.7989853845

- q-position: [    0.1100000,    0.1100000,    0.1100000 ]
  distance:    0.0473272
  band:
  - # 1
    frequency:    2.2371787041
  - # 2
    frequency:    2.2373467943
  - # 3
    frequency:    2.8447811044
  - # 4
    frequency:    3.7023869667
  - # 5
    frequency:    4.2555155024
  - # 6
    frequency:    4.2558387338
  - # 7
    frequency:    6.1194687653
  - # 8
    frequency:    6.1196616120
  - # 9
    frequency:    7.7889414610
  - # 10
    frequency:   13.7677658322
  - # 11
    frequency:   13.7677877783
  - # 12
    frequency:   19.7616695736

- q-position: [    0.1200000,    0.1200000,    0.1200000 ]
  distance:    0.0516296
  band:
  - # 1
    frequency:    2.4095562839
  - # 2
    frequency:    2.4097032144
  - # 3
    frequency:    3.1004610063
  - # 4
    frequency:    3.6634594383
  - # 5
    frequency:    4.3203358385
  - # 6
    frequency:    4.3206813178
  - # 7
    frequency:    6.2017335798
  - # 8
    frequency:    6.2019344558
  - # 9
    frequency:    7.8475486176
  - # 10
    frequency:   13.7779325727
  - # 11
    frequency:   13.7779555966
  - # 12
    frequency:   19.7238975845

- q-position: [    0.1300000,    0.1300000,    0.1300000 ]
  distance:    0.0559321
  band:
  - # 1
    frequency:    2.5685030735
  - # 2
    frequency:    2.5686278719
  - # 3
    frequency:    3.3532656950
  - # 4
    frequency:    3.6214359511
  - # 5
    frequency:    4.3924947733
  - # 6
    frequency:    4.3928599034
  - # 7
    frequency:    6.2952399977
  - # 8
    frequency:    6.2954463108
  - # 9
    frequency:    7.9126254318
  - # 10
    frequency:   13.7891288232
  - # 11
    frequency:   13.7891526974
  - # 12
    frequency:   19.6862947649

- q-position: [    0.1400000,    0.1400000,    0.1400000 ]
  distance:    0.0602346
  band:
  - # 1
    frequency:    2.7113729385
  - # 2
    frequency:    2.7114755758
  - # 3
    frequency:    3.5763683898
  - # 4
    frequency:    3.6022140132
  - # 5
    frequency:    4.4728547115
  - # 6
    frequency:    4.4732359634
  - # 7
    frequency:    6.4006168461
  - # 8
    frequency:    6.4008258682
  - # 9
    frequency:    7.9845406030
  - # 10
    frequency:   13.8013118777
  - # 11
    frequency:   13.8013363633
  - # 12
    frequency:   19.6494580581

- q-position: [    0.1500000,    0.1500000,    0.1500000 ]
  distance:    0.0645370
  band:
  - # 1
    frequency:    2.8358342796
  - # 2
    frequency:    2.8359158904
  - # 3
    frequency:    3.5283072815
  - # 4
    frequency:    3.8462279544
  - # 5
    frequency:    4.5620339957
  - # 6
    frequency:    4.5624267641
  - # 7
    frequency:    6.5183482532
  - # 8
    frequency:    6.5185571983
  - # 9
    frequency:    8.0636785520
  - # 10
    frequency:   13.8144125701
  - # 11
    frequency:   13.8144374200
  - # 12
    frequency:   19.6139423231

- q-position: [    0.1600000,    0.1600000,    0.1600000 ]
  distance:    0.0688395
  band:
  - # 1
    frequency:    2.9402211182
  - # 2
    frequency:    2.9402839674
  - # 3
    frequency:    3.4772987769
  - # 4
    frequency:    4.0841637013
  - # 5
    frequency:    4.6601236259
  - # 6
    frequency:    4.6605223534
  - # 7
    frequency:    6.6487213721
  - # 8
    frequency:    6.6489274946
  - # 9
    frequency:    8.1504196367
  - # 10
    frequency:   13.8283338530
  - # 11
    frequency:   13.8283588155
  - # 12
    frequency:   19.5802480514

- q-position: [    0.1700000,    0.1700000,    0.1700000 ]
  distance:    0.0731420
  band:
  - # 1
    frequency:    3.0237921415
  - # 2
    frequency:    3.0238392804
  - # 3
    frequency:    3.4233862623
  - # 4
    frequency:    4.3148480483
  - # 5
    frequency:    4.7664946730
  - # 6
    frequency:    4.7668932988
  - # 7
    frequency:    6.7917761529
  - # 8
    frequency:    6.7919768612
  - # 9
    frequency:    8.2451119187
  - # 10
    frequency:   13.8429502818
  - # 11
    frequency:   13.8429751040
  - # 12
    frequency:   19.5488108565

- q-position: [    0.1800000,    0.1800000,    0.1800000 ]
  distance:    0.0774444
  band:
  - # 1
    frequency:    3.0867834279
  - # 2
    frequency:    3.0868181543
  - # 3
    frequency:    3.3666090147
  - # 4
    frequency:    4.5371275742
  - # 5
    frequency:    4.8798033455
  - # 6
    frequency:    4.8801959537
  - # 7
    frequency:    6.9472640412
  - # 8
    frequency:    6.9474570190
  - # 9
    frequency:    8.3480343695
  - # 10
    frequency:   13.8581084416
  - # 11
    frequency:   13.8581328738
  - # 12
    frequency:   19.5199930513

- q-position: [    0.1900000,    0.1900000,    0.1900000 ]
  distance:    0.0817469
  band:
  - # 1
    frequency:    3.1302375504
  - # 2
    frequency:    3.1302628971
  - # 3
    frequency:    3.3070022842
  - # 4
    frequency:    4.7499242443
  - # 5
    frequency:    4.9982021404
  - # 6
    frequency:    4.9985835686
  - # 7
    frequency:    7.1146240797
  - # 8
    frequency:    7.1148073969
  - # 9
    frequency:    8.4593531269
  - # 10
    frequency:   13.8736283212
  - # 11
    frequency:   13.8736521207
  - # 12
    frequency:   19.4940775618

- q-position: [    0.2000000,    0.2000000,    0.2000000 ]
  distance:    0.0860494
  band:
  - # 1
    frequency:    3.1557020124
  - # 2
    frequency:    3.1557204350
  - # 3
    frequency:    3.2445974519
  - # 4
    frequency:    4.9522945963
  - # 5
    frequency:    5.1196563806
  - # 6
    frequency:    5.1200225996
  - # 7
    frequency:    7.2929838256
  - # 8
    frequency:    7.2931560205
  - # 9
    frequency:    8.5790746909
  - # 10
    frequency:   13.8893056000
  - # 11
    frequency:   13.8893285355
  - # 12
    frequency:   19.4712643360

- q-position: [    0.2100000,    0.2100000,    0.2100000 ]
  distance:    0.0903518
  band:
  - # 1
    frequency:    3.1649248125
  - # 2
    frequency:    3.1649381041
  - # 3
    frequency:    3.1794224557
  - # 4
    frequency:    5.1434858601
  - # 5
    frequency:    5.2422350173
  - # 6
    frequency:    5.2425832381
  - # 7
    frequency:    7.4811881234
  - # 8
    frequency:    7.4813482398
  - # 9
    frequency:    8.7070022314
  - # 10
    frequency:   13.9049147862
  - # 11
    frequency:   13.9049366421
  - # 12
    frequency:   19.4516693201

- q-position: [    0.2200000,    0.2200000,    0.2200000 ]
  distance:    0.0946543
  band:
  - # 1
    frequency:    3.1115024940
  - # 2
    frequency:    3.1596299754
  - # 3
    frequency:    3.1596393358
  - # 4
    frequency:    5.3229811569
  - # 5
    frequency:    5.3642959099
  - # 6
    frequency:    5.3646244869
  - # 7
    frequency:    7.6778524524
  - # 8
    frequency:    7.6780000273
  - # 9
    frequency:    8.8427025956
  - # 10
    frequency:   13.9202131159
  - # 11
    frequency:   13.9202336960
  - # 12
    frequency:   19.4353259738

- q-position: [    0.2300000,    0.2300000,    0.2300000 ]
  distance:    0.0989568
  band:
  - # 1
    frequency:    3.0408610123
  - # 2
    frequency:    3.1413912560
  - # 3
    frequency:    3.1413974231
  - # 4
    frequency:    5.4845560047
  - # 5
    frequency:    5.4848642335
  - # 6
    frequency:    5.4905263332
  - # 7
    frequency:    7.8814320345
  - # 8
    frequency:    7.8815670410
  - # 9
    frequency:    8.9854912201
  - # 10
    frequency:   13.9349451022
  - # 11
    frequency:   13.9349642332
  - # 12
    frequency:   19.4221892054

- q-position: [    0.2400000,    0.2400000,    0.2400000 ]
  distance:    0.1032593
  band:
  - # 1
    frequency:    2.9675209730
  - # 2
    frequency:    3.1115831577
  - # 3
    frequency:    3.1115865417
  - # 4
    frequency:    5.6020783533
  - # 5
    frequency:    5.6023662392
  - # 6
    frequency:    5.6461336124
  - # 7
    frequency:    8.0902954797
  - # 8
    frequency:    8.0904182432
  - # 9
    frequency:    9.1344395557
  - # 10
    frequency:   13.9488476096
  - # 11
    frequency:   13.9488651441
  - # 12
    frequency:   19.4121415162

- q-position: [    0.2500000,    0.2500000,    0.2500000 ]
  distance:    0.1075617
  band:
  - # 1
    frequency:    2.8915064065
  - # 2
    frequency:    3.0713791007
  - # 3
    frequency:    3.0713798918
  - # 4
    frequency:    5.7162160645
  - # 5
    frequency:    5.7164841081
  - # 6
    frequency:    5.7900615504
  - # 7
    frequency:    8.3027929459
  - # 8
    frequency:    8.3029040483
  - # 9
    frequency:    9.2884053411
  - # 10
    frequency:   13.9616553197
  - # 11
    frequency:   13.9616711390
  - # 12
    frequency:   19.4050010703

- q-position: [    0.2600000,    0.2600000,    0.2600000 ]
  distance:    0.1118642
  band:
  - # 1
    frequency:    2.8128442419
  - # 2
    frequency:    3.0217708551
  - # 3
    frequency:    3.0217726079
  - # 4
    frequency:    5.8265437810
  - # 5
    frequency:    5.8267927986
  - # 6
    frequency:    5.9227753667
  - # 7
    frequency:    8.5173122899
  - # 8
    frequency:    8.5174124783
  - # 9
    frequency:    9.4460814903
  - # 10
    frequency:   13.9731064565
  - # 11
    frequency:   13.9731204723
  - # 12
    frequency:   19.4005313396

- q-position: [    0.2700000,    0.2700000,    0.2700000 ]
  distance:    0.1161667
  band:
  - # 1
    frequency:    2.7315664155
  - # 2
    frequency:    2.9636022556
  - # 3
    frequency:    2.9636065912
  - # 4
    frequency:    5.9327941393
  - # 5
    frequency:    5.9330251254
  - # 6
    frequency:    6.0448950198
  - # 7
    frequency:    8.7323206374
  - # 8
    frequency:    8.7324107473
  - # 9
    frequency:    9.6060560969
  - # 10
    frequency:   13.9829486419
  - # 11
    frequency:   13.9829607971
  - # 12
    frequency:   19.3984519315

- q-position: [    0.2800000,    0.2800000,    0.2800000 ]
  distance:    0.1204691
  band:
  - # 1
    frequency:    2.6477122646
  - # 2
    frequency:    2.8975960466
  - # 3
    frequency:    2.8976030566
  - # 4
    frequency:    6.0348064196
  - # 5
    frequency:    6.0350204466
  - # 6
    frequency:    6.1571394320
  - # 7
    frequency:    8.9463918440
  - # 8
    frequency:    8.9464727388
  - # 9
    frequency:    9.7668750358
  - # 10
    frequency:   13.9909447653
  - # 11
    frequency:   13.9909550353
  - # 12
    frequency:   19.3984501758

- q-position: [    0.2900000,    0.2900000,    0.2900000 ]
  distance:    0.1247716
  band:
  - # 1
    frequency:    2.5613312199
  - # 2
    frequency:    2.8243801846
  - # 3
    frequency:    2.8243899894
  - # 4
    frequency:    6.1324884737
  - # 5
    frequency:    6.1326866227
  - # 6
    frequency:    6.2602741444
  - # 7
    frequency:    9.1582220090
  - # 8
    frequency:    9.1582945376
  - # 9
    frequency:    9.9270997957
  - # 10
    frequency:   13.9968787713
  - # 11
    frequency:   13.9968871628
  - # 12
    frequency:   19.4001930385

- q-position: [    0.3000000,    0.3000000,    0.3000000 ]
  distance:    0.1290741
  band:
  - # 1
    frequency:    2.4724858297
  - # 2
    frequency:    2.7445118040
  - # 3
    frequency:    2.7445245368
  - # 4
    frequency:    6.2257901636
  - # 5
    frequency:    6.2259734794
  - # 6
    frequency:    6.3550672471
  - # 7
    frequency:    9.3666357375
  - # 8
    frequency:    9.3667007063
  - # 9
    frequency:   10.0853556353
  - # 10
    frequency:   14.0005612861
  - # 11
    frequency:   14.0005678366
  - # 12
    frequency:   19.4033389390

- q-position: [    0.3100000,    0.3100000,    0.3100000 ]
  distance:    0.1333765
  band:
  - # 1
    frequency:    2.3812551714
  - # 2
    frequency:    2.6584969064
  - # 3
    frequency:    2.6585127002
  - # 4
    frequency:    6.3146856657
  - # 5
    frequency:    6.3148551300
  - # 6
    frequency:    6.4422557501
  - # 7
    frequency:    9.5705856549
  - # 8
    frequency:    9.5706438115
  - # 9
    frequency:   10.2403678635
  - # 10
    frequency:   14.0018350357
  - # 11
    frequency:   14.0018398119
  - # 12
    frequency:   19.4075490657

- q-position: [    0.3200000,    0.3200000,    0.3200000 ]
  distance:    0.1376790
  band:
  - # 1
    frequency:    2.2877387423
  - # 2
    frequency:    2.5668072155
  - # 3
    frequency:    2.5668261927
  - # 4
    frequency:    6.3991621111
  - # 5
    frequency:    6.3993186275
  - # 6
    frequency:    6.5225223964
  - # 7
    frequency:    9.7691471640
  - # 8
    frequency:    9.7691991894
  - # 9
    frequency:   10.3909862397
  - # 10
    frequency:   14.0005800347
  - # 11
    frequency:   14.0005831301
  - # 12
    frequency:   19.4124978248

- q-position: [    0.3300000,    0.3300000,    0.3300000 ]
  distance:    0.1419815
  band:
  - # 1
    frequency:    2.1920609714
  - # 2
    frequency:    2.4698949945
  - # 3
    frequency:    2.4699172569
  - # 4
    frequency:    6.4792125187
  - # 5
    frequency:    6.4793569065
  - # 6
    frequency:    6.5964815774
  - # 7
    frequency:    9.9615098664
  - # 8
    frequency:    9.9615563734
  - # 9
    frequency:   10.5361988592
  - # 10
    frequency:   13.9967185568
  - # 11
    frequency:   13.9967200889
  - # 12
    frequency:   19.4178821004

- q-position: [    0.3400000,    0.3400000,    0.3400000 ]
  distance:    0.1462839
  band:
  - # 1
    frequency:    2.0943765670
  - # 2
    frequency:    2.3682066530
  - # 3
    frequency:    2.3682322722
  - # 4
    frequency:    6.5548315223
  - # 5
    frequency:    6.5549645157
  - # 6
    frequency:    6.6646724406
  - # 7
    frequency:   10.1469665792
  - # 8
    frequency:   10.1470081138
  - # 9
    frequency:   10.6751374968
  - # 10
    frequency:   13.9902199281
  - # 11
    frequency:   13.9902200355
  - # 12
    frequency:   19.4234290610

- q-position: [    0.3500000,    0.3500000,    0.3500000 ]
  distance:    0.1505864
  band:
  - # 1
    frequency:    1.9948770186
  - # 2
    frequency:    2.2621959978
  - # 3
    frequency:    2.2622250053
  - # 4
    frequency:    6.6260128651
  - # 5
    frequency:    6.6261351157
  - # 6
    frequency:    6.7275572505
  - # 7
    frequency:   10.3249005055
  - # 8
    frequency:   10.3249375510
  - # 9
    frequency:   10.8070764370
  - # 10
    frequency:   13.9811040515
  - # 11
    frequency:   13.9811052127
  - # 12
    frequency:   19.4289023080

- q-position: [    0.3600000,    0.3600000,    0.3600000 ]
  distance:    0.1548889
  band:
  - # 1
    frequency:    1.8937987177
  - # 2
    frequency:    2.1523380579
  - # 3
    frequency:    2.1523704344
  - # 4
    frequency:    6.6927479944
  - # 5
    frequency:    6.6928600759
  - # 6
    frequency:    6.7855233373
  - # 7
    frequency:   10.4947708774
  - # 8
    frequency:   10.4948038595
  - # 9
    frequency:   10.9314265816
  - # 10
    frequency:   13.9694496160
  - # 11
    frequency:   13.9694518758
  - # 12
    frequency:   19.4341062271

- q-position: [    0.3700000,    0.3700000,    0.3700000 ]
  distance:    0.1591913
  band:
  - # 1
    frequency:    1.7914333738
  - # 2
    frequency:    2.0391445853
  - # 3
    frequency:    2.0391802489
  - # 4
    frequency:    6.7550253426
  - # 5
    frequency:    6.7551277567
  - # 6
    frequency:    6.8388873448
  - # 7
    frequency:   10.6560972553
  - # 8
    frequency:   10.6561265478
  - # 9
    frequency:   11.0477262699
  - # 10
    frequency:   13.9553953312
  - # 11
    frequency:   13.9553985091
  - # 12
    frequency:   19.4388884736

- q-position: [    0.3800000,    0.3800000,    0.3800000 ]
  distance:    0.1634938
  band:
  - # 1
    frequency:    1.6881417035
  - # 2
    frequency:    1.9231826479
  - # 3
    frequency:    1.9232214412
  - # 4
    frequency:    6.8128300528
  - # 5
    frequency:    6.8129232355
  - # 6
    frequency:    6.8879008658
  - # 7
    frequency:   10.8084426370
  - # 8
    frequency:   10.8084685675
  - # 9
    frequency:   11.1556298966
  - # 10
    frequency:   13.9391457625
  - # 11
    frequency:   13.9391496715
  - # 12
    frequency:   19.4431405875

- q-position: [    0.3900000,    0.3900000,    0.3900000 ]
  distance:    0.1677963
  band:
  - # 1
    frequency:    1.5843717944
  - # 2
    frequency:    1.8050982470
  - # 3
    frequency:    1.8051399212
  - # 4
    frequency:    6.8661440130
  - # 5
    frequency:    6.8662283408
  - # 6
    frequency:    6.9327568629
  - # 7
    frequency:   10.9513955989
  - # 8
    frequency:   10.9514184539
  - # 9
    frequency:   11.2548951173
  - # 10
    frequency:   13.9209763562
  - # 11
    frequency:   13.9209808061
  - # 12
    frequency:   19.4467968063

- q-position: [    0.4000000,    0.4000000,    0.4000000 ]
  distance:    0.1720988
  band:
  - # 1
    frequency:    1.4806841233
  - # 2
    frequency:    1.6856476942
  - # 3
    frequency:    1.6856918899
  - # 4
    frequency:    6.9149461267
  - # 5
    frequency:    6.9150219229
  - # 6
    frequency:    6.9735965029
  - # 7
    frequency:   11.0845518741
  - # 8
    frequency:   11.0845719042
  - # 9
    frequency:   11.3453692086
  - # 10
    frequency:   13.9012382215
  - # 11
    frequency:   13.9012430225
  - # 12
    frequency:   19.4498312049

- q-position: [    0.4100000,    0.4100000,    0.4100000 ]
  distance:    0.1764012
  band:
  - # 1
    frequency:    1.3777859514
  - # 2
    frequency:    1.5657406604
  - # 3
    frequency:    1.5657868820
  - # 4
    frequency:    6.9592127802
  - # 5
    frequency:    6.9592803207
  - # 6
    frequency:    7.0105161862
  - # 7
    frequency:   11.2074960966
  - # 8
    frequency:   11.2075135210
  - # 9
    frequency:   11.4269750037
  - # 10
    frequency:   13.8803622656
  - # 11
    frequency:   13.8803672310
  - # 12
    frequency:   19.4522533543

- q-position: [    0.4200000,    0.4200000,    0.4200000 ]
  distance:    0.1807037
  band:
  - # 1
    frequency:    1.2765786084
  - # 2
    frequency:    1.4465003937
  - # 3
    frequency:    1.4465479754
  - # 4
    frequency:    6.9989184816
  - # 5
    frequency:    6.9989780001
  - # 6
    frequency:    7.0435746414
  - # 7
    frequency:   11.3197849395
  - # 8
    frequency:   11.3197999498
  - # 9
    frequency:   11.4996967267
  - # 10
    frequency:   13.8588616981
  - # 11
    frequency:   13.8588666476
  - # 12
    frequency:   19.4541027425

- q-position: [    0.4300000,    0.4300000,    0.4300000 ]
  distance:    0.1850062
  band:
  - # 1
    frequency:    1.1782216100
  - # 2
    frequency:    1.3293483611
  - # 3
    frequency:    1.3293964201
  - # 4
    frequency:    7.0340366456
  - # 5
    frequency:    7.0340883384
  - # 6
    frequency:    7.0727999911
  - # 7
    frequency:   11.4209335548
  - # 8
    frequency:   11.4209463183
  - # 9
    frequency:   11.5635660056
  - # 10
    frequency:   13.8373312718
  - # 11
    frequency:   13.8373360343
  - # 12
    frequency:   19.4554422483

- q-position: [    0.4400000,    0.4400000,    0.4400000 ]
  distance:    0.1893086
  band:
  - # 1
    frequency:    1.0842163796
  - # 2
    frequency:    1.2161213432
  - # 3
    frequency:    1.2161687175
  - # 4
    frequency:    7.0645404947
  - # 5
    frequency:    7.0645845249
  - # 6
    frequency:    7.0981967008
  - # 7
    frequency:   11.5104080345
  - # 8
    frequency:   11.5104186967
  - # 9
    frequency:   11.6186483191
  - # 10
    frequency:   13.8164408377
  - # 11
    frequency:   13.8164452538
  - # 12
    frequency:   19.4563509917

- q-position: [    0.4500000,    0.4500000,    0.4500000 ]
  distance:    0.1936111
  band:
  - # 1
    frequency:    0.9965065629
  - # 2
    frequency:    1.1092251642
  - # 3
    frequency:    1.1092703350
  - # 4
    frequency:    7.0904040382
  - # 5
    frequency:    7.0904405393
  - # 6
    frequency:    7.1197523020
  - # 7
    frequency:   11.5876273401
  - # 8
    frequency:   11.5876360264
  - # 9
    frequency:   11.6650301372
  - # 10
    frequency:   13.7969200798
  - # 11
    frequency:   13.7969240043
  - # 12
    frequency:   19.4569169060

- q-position: [    0.4600000,    0.4600000,    0.4600000 ]
  distance:    0.1979136
  band:
  - # 1
    frequency:    0.9175754058
  - # 2
    frequency:    1.0118113347
  - # 3
    frequency:    1.0118523510
  - # 4
    frequency:    7.1116030818
  - # 5
    frequency:    7.1116321606
  - # 6
    frequency:    7.1374437541
  - # 7
    frequency:   11.6519783553
  - # 8
    frequency:   11.6519851718
  - # 9
    frequency:   11.7028070169
  - # 10
    frequency:   13.7795310913
  - # 11
    frequency:   13.7795343966
  - # 12
    frequency:   19.4572293871

- q-position: [    0.4700000,    0.4700000,    0.4700000 ]
  distance:    0.2022160
  band:
  - # 1
    frequency:    0.8504847197
  - # 2
    frequency:    0.9279122126
  - # 3
    frequency:    0.9279466714
  - # 4
    frequency:    7.1281162143
  - # 5
    frequency:    7.1281379535
  - # 6
    frequency:    7.1512432803
  - # 7
    frequency:   11.7028467150
  - # 8
    frequency:   11.7028517488
  - # 9
    frequency:   11.7320729221
  - # 10
    frequency:   13.7650264516
  - # 11
    frequency:   13.7650290302
  - # 12
    frequency:   19.4573723682

- q-position: [    0.4800000,    0.4800000,    0.4800000 ]
  distance:    0.2065185
  band:
  - # 1
    frequency:    0.7987441118
  - # 2
    frequency:    0.8623678067
  - # 3
    frequency:    0.8623930037
  - # 4
    frequency:    7.1399257152
  - # 5
    frequency:    7.1399401752
  - # 6
    frequency:    7.1611234959
  - # 7
    frequency:   11.7396631668
  - # 8
    frequency:   11.7396664846
  - # 9
    frequency:   11.7529110333
  - # 10
    frequency:   13.7540933365
  - # 11
    frequency:   13.7540951043
  - # 12
    frequency:   19.4574181444

- q-position: [    0.4900000,    0.4900000,    0.4900000 ]
  distance:    0.2108210
  band:
  - # 1
    frequency:    0.7658652492
  - # 2
    frequency:    0.8202641814
  - # 3
    frequency:    0.8202775795
  - # 4
    frequency:    7.1470183297
  - # 5
    frequency:    7.1470255499
  - # 6
    frequency:    7.1670616426
  - # 7
    frequency:   11.7619603470
  - # 8
    frequency:   11.7619619943
  - # 9
    frequency:   11.7653862964
  - # 10
    frequency:   13.7472890379
  - # 11
    frequency:   13.7472899367
  - # 12
    frequency:   19.4574222412

- q-position: [    0.5000000,    0.5000000,    0.5000000 ]
  distance:    0.2151234
  band:
  - # 1
    frequency:    0.7545603336
  - # 2
    frequency:    0.8056993653
  - # 3
    frequency:    0.8056993655
  - # 4
    frequency:    7.1493858601
  - # 5
    frequency:    7.1493858601
  - # 6
    frequency:    7.1690427557
  - # 7
    frequency:   11.7694293230
  - # 8
    frequency:   11.7694293230
  - # 9
    frequency:   11.7695399268
  - # 10
    frequency:   13.7449787559
  - # 11
    frequency:   13.7449787560
  - # 12