phono3py:
  version: "3.17.0"
  frequency_unit_conversion_factor: 15.633302
  symmetry_tolerance: 1.00000e-05
  configuration:
    cell_filename: "POSCAR"
    mesh_symmetry: ".true."
    dim: "4 4 3"
    ion_clamped: ".false."
    gruneisen: ".false."
    full_pp: ".false."
    imag_self_energy: ".false."
    isotope: ".false."
    joint_dos: ".false."
    lbte: ".false."
    read_fc2: ".true."
    read_fc3: ".true."
    collective_phonon: ".false."
    use_grg: ".false."

physical_unit:
  atomic_mass: "AMU"
  length: "angstrom"

space_group:
  type: "P4mm"
  number: 99
  Hall_symbol: "P 4 -2"

supercell_matrix:
- [   4,   0,   0 ]
- [   0,   4,   0 ]
- [   0,   0,   3 ]

primitive_cell:
  lattice:
  - [     3.879551900000001,     0.000000000000000,     0.000000000000000 ] # a
  - [     0.000000000000000,     3.879551900000001,     0.000000000000000 ] # b
  - [     0.000000000000000,     0.000000000000000,     4.285887620000000 ] # c
  points:
  - symbol: Ti # 1
    coordinates: [  0.500000000000000,  0.500000000000000,  0.582514440000000 ]
    mass: 47.867000
  - symbol: Pb # 2
    coordinates: [  0.000000000000000,  0.000000000000000,  0.123587950000000 ]
    mass: 207.200000
  - symbol: O # 3
    coordinates: [  0.000000000000000,  0.500000000000000,  0.494157650000000 ]
    mass: 15.999400
  - symbol: O # 4
    coordinates: [  0.500000000000000,  0.000000000000000,  0.494157650000000 ]
    mass: 15.999400
  - symbol: O # 5
    coordinates: [  0.500000000000000,  0.500000000000000,  0.995782320000000 ]
    mass: 15.999400
  reciprocal_lattice: # without 2pi
  - [     0.257761727585085,     0.000000000000000,     0.000000000000000 ] # a*
  - [     0.000000000000000,     0.257761727585085,     0.000000000000000 ] # b*
  - [     0.000000000000000,     0.000000000000000,     0.233323896626109 ] # c*

unit_cell:
  lattice:
  - [     3.879551900000001,     0.000000000000000,     0.000000000000000 ] # a
  - [     0.000000000000000,     3.879551900000001,     0.000000000000000 ] # b
  - [     0.000000000000000,     0.000000000000000,     4.285887620000000 ] # c
  points:
  - symbol: Ti # 1
    coordinates: [  0.500000000000000,  0.500000000000000,  0.582514440000000 ]
    mass: 47.867000
    reduced_to: 1
  - symbol: Pb # 2
    coordinates: [  0.000000000000000,  0.000000000000000,  0.123587950000000 ]
    mass: 207.200000
    reduced_to: 2
  - symbol: O # 3
    coordinates: [  0.000000000000000,  0.500000000000000,  0.494157650000000 ]
    mass: 15.999400
    reduced_to: 3
  - symbol: O # 4
    coordinates: [  0.500000000000000,  0.000000000000000,  0.494157650000000 ]
    mass: 15.999400
    reduced_to: 4
  - symbol: O # 5
    coordinates: [  0.500000000000000,  0.500000000000000,  0.995782320000000 ]
    mass: 15.999400
    reduced_to: 5

supercell:
  lattice:
  - [    15.518207600000004,     0.000000000000000,     0.000000000000000 ] # a
  - [     0.000000000000000,    15.518207600000004,     0.000000000000000 ] # b
  - [     0.000000000000000,     0.000000000000000,    12.857662860000001 ] # c
  points:
  - symbol: Ti # 1
    coordinates: [  0.125000000000000,  0.125000000000000,  0.194171480000000 ]
    mass: 47.867000
    reduced_to: 1
  - symbol: Ti # 2
    coordinates: [  0.375000000000000,  0.125000000000000,  0.194171480000000 ]
    mass: 47.867000
    reduced_to: 1
  - symbol: Ti # 3
    coordinates: [  0.625000000000000,  0.125000000000000,  0.194171480000000 ]
    mass: 47.867000
    reduced_to: 1
  - symbol: Ti # 4
    coordinates: [  0.875000000000000,  0.125000000000000,  0.194171480000000 ]
    mass: 47.867000
    reduced_to: 1
  - symbol: Ti # 5
    coordinates: [  0.125000000000000,  0.375000000000000,  0.194171480000000 ]
    mass: 47.867000
    reduced_to: 1
  - symbol: Ti # 6
    coordinates: [  0.375000000000000,  0.375000000000000,  0.194171480000000 ]
    mass: 47.867000
    reduced_to: 1
  - symbol: Ti # 7
    coordinates: [  0.625000000000000,  0.375000000000000,  0.194171480000000 ]
    mass: 47.867000
    reduced_to: 1
  - symbol: Ti # 8
    coordinates: [  0.875000000000000,  0.375000000000000,  0.194171480000000 ]
    mass: 47.867000
    reduced_to: 1
  - symbol: Ti # 9
    coordinates: [  0.125000000000000,  0.625000000000000,  0.194171480000000 ]
    mass: 47.867000
    reduced_to: 1
  - symbol: Ti # 10
    coordinates: [  0.375000000000000,  0.625000000000000,  0.194171480000000 ]
    mass: 47.867000
    reduced_to: 1
  - symbol: Ti # 11
    coordinates: [  0.625000000000000,  0.625000000000000,  0.194171480000000 ]
    mass: 47.867000
    reduced_to: 1
  - symbol: Ti # 12
    coordinates: [  0.875000000000000,  0.625000000000000,  0.194171480000000 ]
    mass: 47.867000
    reduced_to: 1
  - symbol: Ti # 13
    coordinates: [  0.125000000000000,  0.875000000000000,  0.194171480000000 ]
    mass: 47.867000
    reduced_to: 1
  - symbol: Ti # 14
    coordinates: [  0.375000000000000,  0.875000000000000,  0.194171480000000 ]
    mass: 47.867000
    reduced_to: 1
  - symbol: Ti # 15
    coordinates: [  0.625000000000000,  0.875000000000000,  0.194171480000000 ]
    mass: 47.867000
    reduced_to: 1
  - symbol: Ti # 16
    coordinates: [  0.875000000000000,  0.875000000000000,  0.194171480000000 ]
    mass: 47.867000
    reduced_to: 1
  - symbol: Ti # 17
    coordinates: [  0.125000000000000,  0.125000000000000,  0.527504813333333 ]
    mass: 47.867000
    reduced_to: 1
  - symbol: Ti # 18
    coordinates: [  0.375000000000000,  0.125000000000000,  0.527504813333333 ]
    mass: 47.867000
    reduced_to: 1
  - symbol: Ti # 19
    coordinates: [  0.625000000000000,  0.125000000000000,  0.527504813333333 ]
    mass: 47.867000
    reduced_to: 1
  - symbol: Ti # 20
    coordinates: [  0.875000000000000,  0.125000000000000,  0.527504813333333 ]
    mass: 47.867000
    reduced_to: 1
  - symbol: Ti # 21
    coordinates: [  0.125000000000000,  0.375000000000000,  0.527504813333333 ]
    mass: 47.867000
    reduced_to: 1
  - symbol: Ti # 22
    coordinates: [  0.375000000000000,  0.375000000000000,  0.527504813333333 ]
    mass: 47.867000
    reduced_to: 1
  - symbol: Ti # 23
    coordinates: [  0.625000000000000,  0.375000000000000,  0.527504813333333 ]
    mass: 47.867000
    reduced_to: 1
  - symbol: Ti # 24
    coordinates: [  0.875000000000000,  0.375000000000000,  0.527504813333333 ]
    mass: 47.867000
    reduced_to: 1
  - symbol: Ti # 25
    coordinates: [  0.125000000000000,  0.625000000000000,  0.527504813333333 ]
    mass: 47.867000
    reduced_to: 1
  - symbol: Ti # 26
    coordinates: [  0.375000000000000,  0.625000000000000,  0.527504813333333 ]
    mass: 47.867000
    reduced_to: 1
  - symbol: Ti # 27
    coordinates: [  0.625000000000000,  0.625000000000000,  0.527504813333333 ]
    mass: 47.867000
    reduced_to: 1
  - symbol: Ti # 28
    coordinates: [  0.875000000000000,  0.625000000000000,  0.527504813333333 ]
    mass: 47.867000
    reduced_to: 1
  - symbol: Ti # 29
    coordinates: [  0.125000000000000,  0.875000000000000,  0.527504813333333 ]
    mass: 47.867000
    reduced_to: 1
  - symbol: Ti # 30
    coordinates: [  0.375000000000000,  0.875000000000000,  0.527504813333333 ]
    mass: 47.867000
    reduced_to: 1
  - symbol: Ti # 31
    coordinates: [  0.625000000000000,  0.875000000000000,  0.527504813333333 ]
    mass: 47.867000
    reduced_to: 1
  - symbol: Ti # 32
    coordinates: [  0.875000000000000,  0.875000000000000,  0.527504813333333 ]
    mass: 47.867000
    reduced_to: 1
  - symbol: Ti # 33
    coordinates: [  0.125000000000000,  0.125000000000000,  0.860838146666667 ]
    mass: 47.867000
    reduced_to: 1
  - symbol: Ti # 34
    coordinates: [  0.375000000000000,  0.125000000000000,  0.860838146666667 ]
    mass: 47.867000
    reduced_to: 1
  - symbol: Ti # 35
    coordinates: [  0.625000000000000,  0.125000000000000,  0.860838146666667 ]
    mass: 47.867000
    reduced_to: 1
  - symbol: Ti # 36
    coordinates: [  0.875000000000000,  0.125000000000000,  0.860838146666667 ]
    mass: 47.867000
    reduced_to: 1
  - symbol: Ti # 37
    coordinates: [  0.125000000000000,  0.375000000000000,  0.860838146666667 ]
    mass: 47.867000
    reduced_to: 1
  - symbol: Ti # 38
    coordinates: [  0.375000000000000,  0.375000000000000,  0.860838146666667 ]
    mass: 47.867000
    reduced_to: 1
  - symbol: Ti # 39
    coordinates: [  0.625000000000000,  0.375000000000000,  0.860838146666667 ]
    mass: 47.867000
    reduced_to: 1
  - symbol: Ti # 40
    coordinates: [  0.875000000000000,  0.375000000000000,  0.860838146666667 ]
    mass: 47.867000
    reduced_to: 1
  - symbol: Ti # 41
    coordinates: [  0.125000000000000,  0.625000000000000,  0.860838146666667 ]
    mass: 47.867000
    reduced_to: 1
  - symbol: Ti # 42
    coordinates: [  0.375000000000000,  0.625000000000000,  0.860838146666667 ]
    mass: 47.867000
    reduced_to: 1
  - symbol: Ti # 43
    coordinates: [  0.625000000000000,  0.625000000000000,  0.860838146666667 ]
    mass: 47.867000
    reduced_to: 1
  - symbol: Ti # 44
    coordinates: [  0.875000000000000,  0.625000000000000,  0.860838146666667 ]
    mass: 47.867000
    reduced_to: 1
  - symbol: Ti # 45
    coordinates: [  0.125000000000000,  0.875000000000000,  0.860838146666667 ]
    mass: 47.867000
    reduced_to: 1
  - symbol: Ti # 46
    coordinates: [  0.375000000000000,  0.875000000000000,  0.860838146666667 ]
    mass: 47.867000
    reduced_to: 1
  - symbol: Ti # 47
    coordinates: [  0.625000000000000,  0.875000000000000,  0.860838146666667 ]
    mass: 47.867000
    reduced_to: 1
  - symbol: Ti # 48
    coordinates: [  0.875000000000000,  0.875000000000000,  0.860838146666667 ]
    mass: 47.867000
    reduced_to: 1
  - symbol: Pb # 49
    coordinates: [  0.000000000000000,  0.000000000000000,  0.041195983333333 ]
    mass: 207.200000
    reduced_to: 49
  - symbol: Pb # 50
    coordinates: [  0.250000000000000,  0.000000000000000,  0.041195983333333 ]
    mass: 207.200000
    reduced_to: 49
  - symbol: Pb # 51
    coordinates: [  0.500000000000000,  0.000000000000000,  0.041195983333333 ]
    mass: 207.200000
    reduced_to: 49
  - symbol: Pb # 52
    coordinates: [  0.750000000000000,  0.000000000000000,  0.041195983333333 ]
    mass: 207.200000
    reduced_to: 49
  - symbol: Pb # 53
    coordinates: [  0.000000000000000,  0.250000000000000,  0.041195983333333 ]
    mass: 207.200000
    reduced_to: 49
  - symbol: Pb # 54
    coordinates: [  0.250000000000000,  0.250000000000000,  0.041195983333333 ]
    mass: 207.200000
    reduced_to: 49
  - symbol: Pb # 55
    coordinates: [  0.500000000000000,  0.250000000000000,  0.041195983333333 ]
    mass: 207.200000
    reduced_to: 49
  - symbol: Pb # 56
    coordinates: [  0.750000000000000,  0.250000000000000,  0.041195983333333 ]
    mass: 207.200000
    reduced_to: 49
  - symbol: Pb # 57
    coordinates: [  0.000000000000000,  0.500000000000000,  0.041195983333333 ]
    mass: 207.200000
    reduced_to: 49
  - symbol: Pb # 58
    coordinates: [  0.250000000000000,  0.500000000000000,  0.041195983333333 ]
    mass: 207.200000
    reduced_to: 49
  - symbol: Pb # 59
    coordinates: [  0.500000000000000,  0.500000000000000,  0.041195983333333 ]
    mass: 207.200000
    reduced_to: 49
  - symbol: Pb # 60
    coordinates: [  0.750000000000000,  0.500000000000000,  0.041195983333333 ]
    mass: 207.200000
    reduced_to: 49
  - symbol: Pb # 61
    coordinates: [  0.000000000000000,  0.750000000000000,  0.041195983333333 ]
    mass: 207.200000
    reduced_to: 49
  - symbol: Pb # 62
    coordinates: [  0.250000000000000,  0.750000000000000,  0.041195983333333 ]
    mass: 207.200000
    reduced_to: 49
  - symbol: Pb # 63
    coordinates: [  0.500000000000000,  0.750000000000000,  0.041195983333333 ]
    mass: 207.200000
    reduced_to: 49
  - symbol: Pb # 64
    coordinates: [  0.750000000000000,  0.750000000000000,  0.041195983333333 ]
    mass: 207.200000
    reduced_to: 49
  - symbol: Pb # 65
    coordinates: [  0.000000000000000,  0.000000000000000,  0.374529316666667 ]
    mass: 207.200000
    reduced_to: 49
  - symbol: Pb # 66
    coordinates: [  0.250000000000000,  0.000000000000000,  0.374529316666667 ]
    mass: 207.200000
    reduced_to: 49
  - symbol: Pb # 67
    coordinates: [  0.500000000000000,  0.000000000000000,  0.374529316666667 ]
    mass: 207.200000
    reduced_to: 49
  - symbol: Pb # 68
    coordinates: [  0.750000000000000,  0.000000000000000,  0.374529316666667 ]
    mass: 207.200000
    reduced_to: 49
  - symbol: Pb # 69
    coordinates: [  0.000000000000000,  0.250000000000000,  0.374529316666667 ]
    mass: 207.200000
    reduced_to: 49
  - symbol: Pb # 70
    coordinates: [  0.250000000000000,  0.250000000000000,  0.374529316666667 ]
    mass: 207.200000
    reduced_to: 49
  - symbol: Pb # 71
    coordinates: [  0.500000000000000,  0.250000000000000,  0.374529316666667 ]
    mass: 207.200000
    reduced_to: 49
  - symbol: Pb # 72
    coordinates: [  0.750000000000000,  0.250000000000000,  0.374529316666667 ]
    mass: 207.200000
    reduced_to: 49
  - symbol: Pb # 73
    coordinates: [  0.000000000000000,  0.500000000000000,  0.374529316666667 ]
    mass: 207.200000
    reduced_to: 49
  - symbol: Pb # 74
    coordinates: [  0.250000000000000,  0.500000000000000,  0.374529316666667 ]
    mass: 207.200000
    reduced_to: 49
  - symbol: Pb # 75
    coordinates: [  0.500000000000000,  0.500000000000000,  0.374529316666667 ]
    mass: 207.200000
    reduced_to: 49
  - symbol: Pb # 76
    coordinates: [  0.750000000000000,  0.500000000000000,  0.374529316666667 ]
    mass: 207.200000
    reduced_to: 49
  - symbol: Pb # 77
    coordinates: [  0.000000000000000,  0.750000000000000,  0.374529316666667 ]
    mass: 207.200000
    reduced_to: 49
  - symbol: Pb # 78
    coordinates: [  0.250000000000000,  0.750000000000000,  0.374529316666667 ]
    mass: 207.200000
    reduced_to: 49
  - symbol: Pb # 79
    coordinates: [  0.500000000000000,  0.750000000000000,  0.374529316666667 ]
    mass: 207.200000
    reduced_to: 49
  - symbol: Pb # 80
    coordinates: [  0.750000000000000,  0.750000000000000,  0.374529316666667 ]
    mass: 207.200000
    reduced_to: 49
  - symbol: Pb # 81
    coordinates: [  0.000000000000000,  0.000000000000000,  0.707862650000000 ]
    mass: 207.200000
    reduced_to: 49
  - symbol: Pb # 82
    coordinates: [  0.250000000000000,  0.000000000000000,  0.707862650000000 ]
    mass: 207.200000
    reduced_to: 49
  - symbol: Pb # 83
    coordinates: [  0.500000000000000,  0.000000000000000,  0.707862650000000 ]
    mass: 207.200000
    reduced_to: 49
  - symbol: Pb # 84
    coordinates: [  0.750000000000000,  0.000000000000000,  0.707862650000000 ]
    mass: 207.200000
    reduced_to: 49
  - symbol: Pb # 85
    coordinates: [  0.000000000000000,  0.250000000000000,  0.707862650000000 ]
    mass: 207.200000
    reduced_to: 49
  - symbol: Pb # 86
    coordinates: [  0.250000000000000,  0.250000000000000,  0.707862650000000 ]
    mass: 207.200000
    reduced_to: 49
  - symbol: Pb # 87
    coordinates: [  0.500000000000000,  0.250000000000000,  0.707862650000000 ]
    mass: 207.200000
    reduced_to: 49
  - symbol: Pb # 88
    coordinates: [  0.750000000000000,  0.250000000000000,  0.707862650000000 ]
    mass: 207.200000
    reduced_to: 49
  - symbol: Pb # 89
    coordinates: [  0.000000000000000,  0.500000000000000,  0.707862650000000 ]
    mass: 207.200000
    reduced_to: 49
  - symbol: Pb # 90
    coordinates: [  0.250000000000000,  0.500000000000000,  0.707862650000000 ]
    mass: 207.200000
    reduced_to: 49
  - symbol: Pb # 91
    coordinates: [  0.500000000000000,  0.500000000000000,  0.707862650000000 ]
    mass: 207.200000
    reduced_to: 49
  - symbol: Pb # 92
    coordinates: [  0.750000000000000,  0.500000000000000,  0.707862650000000 ]
    mass: 207.200000
    reduced_to: 49
  - symbol: Pb # 93
    coordinates: [  0.000000000000000,  0.750000000000000,  0.707862650000000 ]
    mass: 207.200000
    reduced_to: 49
  - symbol: Pb # 94
    coordinates: [  0.250000000000000,  0.750000000000000,  0.707862650000000 ]
    mass: 207.200000
    reduced_to: 49
  - symbol: Pb # 95
    coordinates: [  0.500000000000000,  0.750000000000000,  0.707862650000000 ]
    mass: 207.200000
    reduced_to: 49
  - symbol: Pb # 96
    coordinates: [  0.750000000000000,  0.750000000000000,  0.707862650000000 ]
    mass: 207.200000
    reduced_to: 49
  - symbol: O # 97
    coordinates: [  0.000000000000000,  0.125000000000000,  0.164719216666667 ]
    mass: 15.999400
    reduced_to: 97
  - symbol: O # 98
    coordinates: [  0.250000000000000,  0.125000000000000,  0.164719216666667 ]
    mass: 15.999400
    reduced_to: 97
  - symbol: O # 99
    coordinates: [  0.500000000000000,  0.125000000000000,  0.164719216666667 ]
    mass: 15.999400
    reduced_to: 97
  - symbol: O # 100
    coordinates: [  0.750000000000000,  0.125000000000000,  0.164719216666667 ]
    mass: 15.999400
    reduced_to: 97
  - symbol: O # 101
    coordinates: [  0.000000000000000,  0.375000000000000,  0.164719216666667 ]
    mass: 15.999400
    reduced_to: 97
  - symbol: O # 102
    coordinates: [  0.250000000000000,  0.375000000000000,  0.164719216666667 ]
    mass: 15.999400
    reduced_to: 97
  - symbol: O # 103
    coordinates: [  0.500000000000000,  0.375000000000000,  0.164719216666667 ]
    mass: 15.999400
    reduced_to: 97
  - symbol: O # 104
    coordinates: [  0.750000000000000,  0.375000000000000,  0.164719216666667 ]
    mass: 15.999400
    reduced_to: 97
  - symbol: O # 105
    coordinates: [  0.000000000000000,  0.625000000000000,  0.164719216666667 ]
    mass: 15.999400
    reduced_to: 97
  - symbol: O # 106
    coordinates: [  0.250000000000000,  0.625000000000000,  0.164719216666667 ]
    mass: 15.999400
    reduced_to: 97
  - symbol: O # 107
    coordinates: [  0.500000000000000,  0.625000000000000,  0.164719216666667 ]
    mass: 15.999400
    reduced_to: 97
  - symbol: O # 108
    coordinates: [  0.750000000000000,  0.625000000000000,  0.164719216666667 ]
    mass: 15.999400
    reduced_to: 97
  - symbol: O # 109
    coordinates: [  0.000000000000000,  0.875000000000000,  0.164719216666667 ]
    mass: 15.999400
    reduced_to: 97
  - symbol: O # 110
    coordinates: [  0.250000000000000,  0.875000000000000,  0.164719216666667 ]
    mass: 15.999400
    reduced_to: 97
  - symbol: O # 111
    coordinates: [  0.500000000000000,  0.875000000000000,  0.164719216666667 ]
    mass: 15.999400
    reduced_to: 97
  - symbol: O # 112
    coordinates: [  0.750000000000000,  0.875000000000000,  0.164719216666667 ]
    mass: 15.999400
    reduced_to: 97
  - symbol: O # 113
    coordinates: [  0.000000000000000,  0.125000000000000,  0.498052550000000 ]
    mass: 15.999400
    reduced_to: 97
  - symbol: O # 114
    coordinates: [  0.250000000000000,  0.125000000000000,  0.498052550000000 ]
    mass: 15.999400
    reduced_to: 97
  - symbol: O # 115
    coordinates: [  0.500000000000000,  0.125000000000000,  0.498052550000000 ]
    mass: 15.999400
    reduced_to: 97
  - symbol: O # 116
    coordinates: [  0.750000000000000,  0.125000000000000,  0.498052550000000 ]
    mass: 15.999400
    reduced_to: 97
  - symbol: O # 117
    coordinates: [  0.000000000000000,  0.375000000000000,  0.498052550000000 ]
    mass: 15.999400
    reduced_to: 97
  - symbol: O # 118
    coordinates: [  0.250000000000000,  0.375000000000000,  0.498052550000000 ]
    mass: 15.999400
    reduced_to: 97
  - symbol: O # 119
    coordinates: [  0.500000000000000,  0.375000000000000,  0.498052550000000 ]
    mass: 15.999400
    reduced_to: 97
  - symbol: O # 120
    coordinates: [  0.750000000000000,  0.375000000000000,  0.498052550000000 ]
    mass: 15.999400
    reduced_to: 97
  - symbol: O # 121
    coordinates: [  0.000000000000000,  0.625000000000000,  0.498052550000000 ]
    mass: 15.999400
    reduced_to: 97
  - symbol: O # 122
    coordinates: [  0.250000000000000,  0.625000000000000,  0.498052550000000 ]
    mass: 15.999400
    reduced_to: 97
  - symbol: O # 123
    coordinates: [  0.500000000000000,  0.625000000000000,  0.498052550000000 ]
    mass: 15.999400
    reduced_to: 97
  - symbol: O # 124
    coordinates: [  0.750000000000000,  0.625000000000000,  0.498052550000000 ]
    mass: 15.999400
    reduced_to: 97
  - symbol: O # 125
    coordinates: [  0.000000000000000,  0.875000000000000,  0.498052550000000 ]
    mass: 15.999400
    reduced_to: 97
  - symbol: O # 126
    coordinates: [  0.250000000000000,  0.875000000000000,  0.498052550000000 ]
    mass: 15.999400
    reduced_to: 97
  - symbol: O # 127
    coordinates: [  0.500000000000000,  0.875000000000000,  0.498052550000000 ]
    mass: 15.999400
    reduced_to: 97
  - symbol: O # 128
    coordinates: [  0.750000000000000,  0.875000000000000,  0.498052550000000 ]
    mass: 15.999400
    reduced_to: 97
  - symbol: O # 129
    coordinates: [  0.000000000000000,  0.125000000000000,  0.831385883333333 ]
    mass: 15.999400
    reduced_to: 97
  - symbol: O # 130
    coordinates: [  0.250000000000000,  0.125000000000000,  0.831385883333333 ]
    mass: 15.999400
    reduced_to: 97
  - symbol: O # 131
    coordinates: [  0.500000000000000,  0.125000000000000,  0.831385883333333 ]
    mass: 15.999400
    reduced_to: 97
  - symbol: O # 132
    coordinates: [  0.750000000000000,  0.125000000000000,  0.831385883333333 ]
    mass: 15.999400
    reduced_to: 97
  - symbol: O # 133
    coordinates: [  0.000000000000000,  0.375000000000000,  0.831385883333333 ]
    mass: 15.999400
    reduced_to: 97
  - symbol: O # 134
    coordinates: [  0.250000000000000,  0.375000000000000,  0.831385883333333 ]
    mass: 15.999400
    reduced_to: 97
  - symbol: O # 135
    coordinates: [  0.500000000000000,  0.375000000000000,  0.831385883333333 ]
    mass: 15.999400
    reduced_to: 97
  - symbol: O # 136
    coordinates: [  0.750000000000000,  0.375000000000000,  0.831385883333333 ]
    mass: 15.999400
    reduced_to: 97
  - symbol: O # 137
    coordinates: [  0.000000000000000,  0.625000000000000,  0.831385883333333 ]
    mass: 15.999400
    reduced_to: 97
  - symbol: O # 138
    coordinates: [  0.250000000000000,  0.625000000000000,  0.831385883333333 ]
    mass: 15.999400
    reduced_to: 97
  - symbol: O # 139
    coordinates: [  0.500000000000000,  0.625000000000000,  0.831385883333333 ]
    mass: 15.999400
    reduced_to: 97
  - symbol: O # 140
    coordinates: [  0.750000000000000,  0.625000000000000,  0.831385883333333 ]
    mass: 15.999400
    reduced_to: 97
  - symbol: O # 141
    coordinates: [  0.000000000000000,  0.875000000000000,  0.831385883333333 ]
    mass: 15.999400
    reduced_to: 97
  - symbol: O # 142
    coordinates: [  0.250000000000000,  0.875000000000000,  0.831385883333333 ]
    mass: 15.999400
    reduced_to: 97
  - symbol: O # 143
    coordinates: [  0.500000000000000,  0.875000000000000,  0.831385883333333 ]
    mass: 15.999400
    reduced_to: 97
  - symbol: O # 144
    coordinates: [  0.750000000000000,  0.875000000000000,  0.831385883333333 ]
    mass: 15.999400
    reduced_to: 97
  - symbol: O # 145
    coordinates: [  0.125000000000000,  0.000000000000000,  0.164719216666667 ]
    mass: 15.999400
    reduced_to: 145
  - symbol: O # 146
    coordinates: [  0.375000000000000,  0.000000000000000,  0.164719216666667 ]
    mass: 15.999400
    reduced_to: 145
  - symbol: O # 147
    coordinates: [  0.625000000000000,  0.000000000000000,  0.164719216666667 ]
    mass: 15.999400
    reduced_to: 145
  - symbol: O # 148
    coordinates: [  0.875000000000000,  0.000000000000000,  0.164719216666667 ]
    mass: 15.999400
    reduced_to: 145
  - symbol: O # 149
    coordinates: [  0.125000000000000,  0.250000000000000,  0.164719216666667 ]
    mass: 15.999400
    reduced_to: 145
  - symbol: O # 150
    coordinates: [  0.375000000000000,  0.250000000000000,  0.164719216666667 ]
    mass: 15.999400
    reduced_to: 145
  - symbol: O # 151
    coordinates: [  0.625000000000000,  0.250000000000000,  0.164719216666667 ]
    mass: 15.999400
    reduced_to: 145
  - symbol: O # 152
    coordinates: [  0.875000000000000,  0.250000000000000,  0.164719216666667 ]
    mass: 15.999400
    reduced_to: 145
  - symbol: O # 153
    coordinates: [  0.125000000000000,  0.500000000000000,  0.164719216666667 ]
    mass: 15.999400
    reduced_to: 145
  - symbol: O # 154
    coordinates: [  0.375000000000000,  0.500000000000000,  0.164719216666667 ]
    mass: 15.999400
    reduced_to: 145
  - symbol: O # 155
    coordinates: [  0.625000000000000,  0.500000000000000,  0.164719216666667 ]
    mass: 15.999400
    reduced_to: 145
  - symbol: O # 156
    coordinates: [  0.875000000000000,  0.500000000000000,  0.164719216666667 ]
    mass: 15.999400
    reduced_to: 145
  - symbol: O # 157
    coordinates: [  0.125000000000000,  0.750000000000000,  0.164719216666667 ]
    mass: 15.999400
    reduced_to: 145
  - symbol: O # 158
    coordinates: [  0.375000000000000,  0.750000000000000,  0.164719216666667 ]
    mass: 15.999400
    reduced_to: 145
  - symbol: O # 159
    coordinates: [  0.625000000000000,  0.750000000000000,  0.164719216666667 ]
    mass: 15.999400
    reduced_to: 145
  - symbol: O # 160
    coordinates: [  0.875000000000000,  0.750000000000000,  0.164719216666667 ]
    mass: 15.999400
    reduced_to: 145
  - symbol: O # 161
    coordinates: [  0.125000000000000,  0.000000000000000,  0.498052550000000 ]
    mass: 15.999400
    reduced_to: 145
  - symbol: O # 162
    coordinates: [  0.375000000000000,  0.000000000000000,  0.498052550000000 ]
    mass: 15.999400
    reduced_to: 145
  - symbol: O # 163
    coordinates: [  0.625000000000000,  0.000000000000000,  0.498052550000000 ]
    mass: 15.999400
    reduced_to: 145
  - symbol: O # 164
    coordinates: [  0.875000000000000,  0.000000000000000,  0.498052550000000 ]
    mass: 15.999400
    reduced_to: 145
  - symbol: O # 165
    coordinates: [  0.125000000000000,  0.250000000000000,  0.498052550000000 ]
    mass: 15.999400
    reduced_to: 145
  - symbol: O # 166
    coordinates: [  0.375000000000000,  0.250000000000000,  0.498052550000000 ]
    mass: 15.999400
    reduced_to: 145
  - symbol: O # 167
    coordinates: [  0.625000000000000,  0.250000000000000,  0.498052550000000 ]
    mass: 15.999400
    reduced_to: 145
  - symbol: O # 168
    coordinates: [  0.875000000000000,  0.250000000000000,  0.498052550000000 ]
    mass: 15.999400
    reduced_to: 145
  - symbol: O # 169
    coordinates: [  0.125000000000000,  0.500000000000000,  0.498052550000000 ]
    mass: 15.999400
    reduced_to: 145
  - symbol: O # 170
    coordinates: [  0.375000000000000,  0.500000000000000,  0.498052550000000 ]
    mass: 15.999400
    reduced_to: 145
  - symbol: O # 171
    coordinates: [  0.625000000000000,  0.500000000000000,  0.498052550000000 ]
    mass: 15.999400
    reduced_to: 145
  - symbol: O # 172
    coordinates: [  0.875000000000000,  0.500000000000000,  0.498052550000000 ]
    mass: 15.999400
    reduced_to: 145
  - symbol: O # 173
    coordinates: [  0.125000000000000,  0.750000000000000,  0.498052550000000 ]
    mass: 15.999400
    reduced_to: 145
  - symbol: O # 174
    coordinates: [  0.375000000000000,  0.750000000000000,  0.498052550000000 ]
    mass: 15.999400
    reduced_to: 145
  - symbol: O # 175
    coordinates: [  0.625000000000000,  0.750000000000000,  0.498052550000000 ]
    mass: 15.999400
    reduced_to: 145
  - symbol: O # 176
    coordinates: [  0.875000000000000,  0.750000000000000,  0.498052550000000 ]
    mass: 15.999400
    reduced_to: 145
  - symbol: O # 177
    coordinates: [  0.125000000000000,  0.000000000000000,  0.831385883333333 ]
    mass: 15.999400
    reduced_to: 145
  - symbol: O # 178
    coordinates: [  0.375000000000000,  0.000000000000000,  0.831385883333333 ]
    mass: 15.999400
    reduced_to: 145
  - symbol: O # 179
    coordinates: [  0.625000000000000,  0.000000000000000,  0.831385883333333 ]
    mass: 15.999400
    reduced_to: 145
  - symbol: O # 180
    coordinates: [  0.875000000000000,  0.000000000000000,  0.831385883333333 ]
    mass: 15.999400
    reduced_to: 145
  - symbol: O # 181
    coordinates: [  0.125000000000000,  0.250000000000000,  0.831385883333333 ]
    mass: 15.999400
    reduced_to: 145
  - symbol: O # 182
    coordinates: [  0.375000000000000,  0.250000000000000,  0.831385883333333 ]
    mass: 15.999400
    reduced_to: 145
  - symbol: O # 183
    coordinates: [  0.625000000000000,  0.250000000000000,  0.831385883333333 ]
    mass: 15.999400
    reduced_to: 145
  - symbol: O # 184
    coordinates: [  0.875000000000000,  0.250000000000000,  0.831385883333333 ]
    mass: 15.999400
    reduced_to: 145
  - symbol: O # 185
    coordinates: [  0.125000000000000,  0.500000000000000,  0.831385883333333 ]
    mass: 15.999400
    reduced_to: 145
  - symbol: O # 186
    coordinates: [  0.375000000000000,  0.500000000000000,  0.831385883333333 ]
    mass: 15.999400
    reduced_to: 145
  - symbol: O # 187
    coordinates: [  0.625000000000000,  0.500000000000000,  0.831385883333333 ]
    mass: 15.999400
    reduced_to: 145
  - symbol: O # 188
    coordinates: [  0.875000000000000,  0.500000000000000,  0.831385883333333 ]
    mass: 15.999400
    reduced_to: 145
  - symbol: O # 189
    coordinates: [  0.125000000000000,  0.750000000000000,  0.831385883333333 ]
    mass: 15.999400
    reduced_to: 145
  - symbol: O # 190
    coordinates: [  0.375000000000000,  0.750000000000000,  0.831385883333333 ]
    mass: 15.999400
    reduced_to: 145
  - symbol: O # 191
    coordinates: [  0.625000000000000,  0.750000000000000,  0.831385883333333 ]
    mass: 15.999400
    reduced_to: 145
  - symbol: O # 192
    coordinates: [  0.875000000000000,  0.750000000000000,  0.831385883333333 ]
    mass: 15.999400
    reduced_to: 145
  - symbol: O # 193
    coordinates: [  0.125000000000000,  0.125000000000000,  0.331927440000000 ]
    mass: 15.999400
    reduced_to: 193
  - symbol: O # 194