# epsilon and Z* of atoms 1 2 3 5
   7.41683198    0.00000000    0.00000000    0.00000000    7.41683198    0.00000000    0.00000000    0.00000000    6.83062128 
   6.19353160    0.00000000    0.00000000    0.00000000    6.19353160    0.00000000    0.00000000    0.00000000    5.23257323 
   3.75295015    0.00000000    0.00000000    0.00000000    3.75295015    0.00000000    0.00000000    0.00000000    3.45872399 
  -5.17941409    0.00000000    0.00000000    0.00000000   -2.63748026    0.00000000    0.00000000    0.00000000   -2.13354110 
  -2.12958739    0.00000000    0.00000000    0.00000000   -2.12958739    0.00000000    0.00000000    0.00000000   -4.42421500 
