nqpoint: 459    
npath: 9      
segment_nqpoint:
- 51
- 51
- 51
- 51
- 51
- 51
- 51
- 51
- 51
labels:
- [ '$\Gamma$', '$\mathrm{X}$' ]
- [ '$\mathrm{X}$', '$\mathrm{M}$' ]
- [ '$\mathrm{M}$', '$\Gamma$' ]
- [ '$\Gamma$', '$\mathrm{Z}$' ]
- [ '$\mathrm{Z}$', '$\mathrm{R}$' ]
- [ '$\mathrm{R}$', '$\mathrm{A}$' ]
- [ '$\mathrm{A}$', '$\mathrm{Z}$' ]
- [ '$\mathrm{X}$', '$\mathrm{R}$' ]
- [ '$\mathrm{M}$', '$\mathrm{A}$' ]
reciprocal_lattice:
- [   0.25776173,   0.00000000,   0.00000000 ] # a*
- [   0.00000000,   0.25776173,   0.00000000 ] # b*
- [   0.00000000,   0.00000000,   0.23332390 ] # c*
natom: 5      
lattice:
- [     3.879551900000002,     0.000000000000000,     0.000000000000000 ] # a
- [     0.000000000000000,     3.879551900000002,     0.000000000000000 ] # b
- [     0.000000000000000,     0.000000000000000,     4.285887620000000 ] # c
points:
- symbol: Ti # 1
  coordinates: [  0.500000000000000,  0.500000000000000,  0.582514440000000 ]
  mass: 47.867000
- symbol: Pb # 2
  coordinates: [  0.000000000000000,  0.000000000000000,  0.123587950000000 ]
  mass: 207.200000
- symbol: O # 3
  coordinates: [  0.000000000000000,  0.500000000000000,  0.494157650000000 ]
  mass: 15.999400
- symbol: O # 4
  coordinates: [  0.500000000000000,  0.000000000000000,  0.494157650000000 ]
  mass: 15.999400
- symbol: O # 5
  coordinates: [  0.500000000000000,  0.500000000000000,  0.995782320000000 ]
  mass: 15.999400

phonon:
- q-position: [    0.0000000,    0.0000000,    0.0000000 ]
  distance:    0.0000000
  band:
  - # 1
    frequency:   -0.0078261579
  - # 2
    frequency:   -0.0078261579
  - # 3
    frequency:   -0.0041336615
  - # 4
    frequency:    2.6312665170
  - # 5
    frequency:    2.6312665170
  - # 6
    frequency:    4.4331832446
  - # 7
    frequency:    5.9827523154
  - # 8
    frequency:    5.9827523154
  - # 9
    frequency:    8.1774689608
  - # 10
    frequency:    8.1774689608
  - # 11
    frequency:    8.2410593283
  - # 12
    frequency:   10.5590649386
  - # 13
    frequency:   14.8600468522
  - # 14
    frequency:   14.8600468522
  - # 15
    frequency:   19.4453950801

- q-position: [    0.0000000,    0.0100000,    0.0000000 ]
  distance:    0.0025776
  band:
  - # 1
    frequency:    0.0774386592
  - # 2
    frequency:    0.0901932161
  - # 3
    frequency:    0.1487544243
  - # 4
    frequency:    2.6349039160
  - # 5
    frequency:    2.6665746965
  - # 6
    frequency:    4.4334126636
  - # 7
    frequency:    5.9842134119
  - # 8
    frequency:    6.0276757706
  - # 9
    frequency:    8.1782235297
  - # 10
    frequency:    8.1783086049
  - # 11
    frequency:    8.2418137880
  - # 12
    frequency:   10.5587070799
  - # 13
    frequency:   14.8593594202
  - # 14
    frequency:   14.8697121656
  - # 15
    frequency:   19.4452137870

- q-position: [    0.0000000,    0.0200000,    0.0000000 ]
  distance:    0.0051552
  band:
  - # 1
    frequency:    0.1591630394
  - # 2
    frequency:    0.1800836393
  - # 3
    frequency:    0.2937049184
  - # 4
    frequency:    2.6457824946
  - # 5
    frequency:    2.7648556335
  - # 6
    frequency:    4.4344628774
  - # 7
    frequency:    5.9886006701
  - # 8
    frequency:    6.1611669334
  - # 9
    frequency:    8.1805277849
  - # 10
    frequency:    8.1808278129
  - # 11
    frequency:    8.2441883148
  - # 12
    frequency:   10.5576372042
  - # 13
    frequency:   14.8572973230
  - # 14
    frequency:   14.8987448457
  - # 15
    frequency:   19.4446828044

- q-position: [    0.0000000,    0.0300000,    0.0000000 ]
  distance:    0.0077329
  band:
  - # 1
    frequency:    0.2401889152
  - # 2
    frequency:    0.2682706703
  - # 3
    frequency:    0.4355204941
  - # 4
    frequency:    2.6637990621
  - # 5
    frequency:    2.9073524265
  - # 6
    frequency:    4.4372603734
  - # 7
    frequency:    5.9959257549
  - # 8
    frequency:    6.3788479326
  - # 9
    frequency:    8.1845096231
  - # 10
    frequency:    8.1850274373
  - # 11
    frequency:    8.2486013279
  - # 12
    frequency:   10.5558661891
  - # 13
    frequency:   14.8538611750
  - # 14
    frequency:   14.9472566515
  - # 15
    frequency:   19.4438414376

- q-position: [    0.0000000,    0.0400000,    0.0000000 ]
  distance:    0.0103105
  band:
  - # 1
    frequency:    0.3210140737
  - # 2
    frequency:    0.3541200842
  - # 3
    frequency:    0.5731043167
  - # 4
    frequency:    2.6887744530
  - # 5
    frequency:    3.0729023540
  - # 6
    frequency:    4.4430081855
  - # 7
    frequency:    6.0062072943
  - # 8
    frequency:    6.6719427019
  - # 9
    frequency:    8.1903947490
  - # 10
    frequency:    8.1909089829
  - # 11
    frequency:    8.2561499567
  - # 12
    frequency:   10.5534114782
  - # 13
    frequency:   14.8490520604
  - # 14
    frequency:   15.0154380261
  - # 15
    frequency:   19.4427573204

- q-position: [    0.0000000,    0.0500000,    0.0000000 ]
  distance:    0.0128881
  band:
  - # 1
    frequency:    0.4015103207
  - # 2
    frequency:    0.4370169764
  - # 3
    frequency:    0.7059960177
  - # 4
    frequency:    2.7204447652
  - # 5
    frequency:    3.2446061003
  - # 6
    frequency:    4.4530603134
  - # 7
    frequency:    6.0194696304
  - # 8
    frequency:    7.0256798840
  - # 9
    frequency:    8.1984652597
  - # 10
    frequency:    8.1984747297
  - # 11
    frequency:    8.2698848790
  - # 12
    frequency:   10.5502962744
  - # 13
    frequency:   14.8428716228
  - # 14
    frequency:   15.1035608731
  - # 15
    frequency:   19.4415298813

- q-position: [    0.0000000,    0.0600000,    0.0000000 ]
  distance:    0.0154657
  band:
  - # 1
    frequency:    0.4814573605
  - # 2
    frequency:    0.5164445000
  - # 3
    frequency:    0.8339808789
  - # 4
    frequency:    2.7584527638
  - # 5
    frequency:    3.4117337082
  - # 6
    frequency:    4.4690284478
  - # 7
    frequency:    6.0357410133
  - # 8
    frequency:    7.4155179602
  - # 9
    frequency:    8.2077278990
  - # 10
    frequency:    8.2087501165
  - # 11
    frequency:    8.2997799236
  - # 12
    frequency:   10.5465489124
  - # 13
    frequency:   14.8353221900
  - # 14
    frequency:   15.2119749140
  - # 15
    frequency:   19.4402958057

- q-position: [    0.0000000,    0.0700000,    0.0000000 ]
  distance:    0.0180433
  band:
  - # 1
    frequency:    0.5606391601
  - # 2
    frequency:    0.5920073992
  - # 3
    frequency:    0.9569731081
  - # 4
    frequency:    2.8023422974
  - # 5
    frequency:    3.5682534473
  - # 6
    frequency:    4.4930231852
  - # 7
    frequency:    6.0550511979
  - # 8
    frequency:    7.7880713655
  - # 9
    frequency:    8.2186728559
  - # 10
    frequency:    8.2202750843
  - # 11
    frequency:    8.3843172447
  - # 12
    frequency:   10.5422031643
  - # 13
    frequency:   14.8264069328
  - # 14
    frequency:   15.3410889956
  - # 15
    frequency:   19.4392372340

- q-position: [    0.0000000,    0.0800000,    0.0000000 ]
  distance:    0.0206209
  band:
  - # 1
    frequency:    0.6388607419
  - # 2
    frequency:    0.6634413556
  - # 3
    frequency:    1.0749849164
  - # 4
    frequency:    2.8515582724
  - # 5
    frequency:    3.7104432186
  - # 6
    frequency:    4.5278730653
  - # 7
    frequency:    6.0774284026
  - # 8
    frequency:    8.0253871319
  - # 9
    frequency:    8.2313153397
  - # 10
    frequency:    8.2313307023
  - # 11
    frequency:    8.6276443448
  - # 12
    frequency:   10.5373013233
  - # 13
    frequency:   14.8161300579
  - # 14
    frequency:   15.4913252760
  - # 15
    frequency:   19.4385938741

- q-position: [    0.0000000,    0.0900000,    0.0000000 ]
  distance:    0.0231986
  band:
  - # 1
    frequency:    0.7159450288
  - # 2
    frequency:    0.7306121182
  - # 3
    frequency:    1.1881124517
  - # 4
    frequency:    2.9054538045
  - # 5
    frequency:    3.8352454307
  - # 6
    frequency:    4.5770410141
  - # 7
    frequency:    6.1028956121
  - # 8
    frequency:    8.1136136530
  - # 9
    frequency:    8.2413604296
  - # 10
    frequency:    8.2456627070
  - # 11
    frequency:    9.0300860283
  - # 12
    frequency:   10.5319059629
  - # 13
    frequency:   14.8044970323
  - # 14
    frequency:   15.6630313894
  - # 15
    frequency:   19.4386808807

- q-position: [    0.0000000,    0.1000000,    0.0000000 ]
  distance:    0.0257762
  band:
  - # 1
    frequency:    0.7917268295
  - # 2
    frequency:    0.7935057794
  - # 3
    frequency:    1.2965170021
  - # 4
    frequency:    2.9633048359
  - # 5
    frequency:    3.9401139847
  - # 6
    frequency:    4.6437986641
  - # 7
    frequency:    6.1314662401
  - # 8
    frequency:    8.1496309283
  - # 9
    frequency:    8.2509458638
  - # 10
    frequency:    8.2617241733
  - # 11
    frequency:    9.4819492284
  - # 12
    frequency:   10.5261460860
  - # 13
    frequency:   14.7915148387
  - # 14
    frequency:   15.8563354988
  - # 15
    frequency:   19.4399154250

- q-position: [    0.0000000,    0.1100000,    0.0000000 ]
  distance:    0.0283538
  band:
  - # 1
    frequency:    0.8522120568
  - # 2
    frequency:    0.8660483258
  - # 3
    frequency:    1.4004010611
  - # 4
    frequency:    3.0243311238
  - # 5
    frequency:    4.0242075310
  - # 6
    frequency:    4.7296146106
  - # 7
    frequency:    6.1631392204
  - # 8
    frequency:    8.1697989649
  - # 9
    frequency:    8.2608147317
  - # 10
    frequency:    8.2795110276
  - # 11
    frequency:    9.9356195977
  - # 12
    frequency:   10.5204777318
  - # 13
    frequency:   14.7771922609
  - # 14
    frequency:   16.0709344526
  - # 15
    frequency:   19.4428565911

- q-position: [    0.0000000,    0.1200000,    0.0000000 ]
  distance:    0.0309314
  band:
  - # 1
    frequency:    0.9069031163
  - # 2
    frequency:    0.9387565418
  - # 3
    frequency:    1.4999841749
  - # 4
    frequency:    3.0877214512
  - # 5
    frequency:    4.0894365841
  - # 6
    frequency:    4.8329934556
  - # 7
    frequency:    6.1978936650
  - # 8
    frequency:    8.1835210288
  - # 9
    frequency:    8.2715437278
  - # 10
    frequency:    8.2990367934
  - # 11
    frequency:   10.3675151998
  - # 12
    frequency:   10.5204524789
  - # 13
    frequency:   14.7615401970
  - # 14
    frequency:   16.3058182495
  - # 15
    frequency:   19.4482659383

- q-position: [    0.0000000,    0.1300000,    0.0000000 ]
  distance:    0.0335090
  band:
  - # 1
    frequency:    0.9578107129
  - # 2
    frequency:    1.0097023834
  - # 3
    frequency:    1.5954826395
  - # 4
    frequency:    3.1526604261
  - # 5
    frequency:    4.1398158173
  - # 6
    frequency:    4.9501399559
  - # 7
    frequency:    6.2356833103
  - # 8
    frequency:    8.1937384844
  - # 9
    frequency:    8.2835484589
  - # 10
    frequency:    8.3203172995
  - # 11
    frequency:   10.4984259878
  - # 12
    frequency:   10.7958619317
  - # 13
    frequency:   14.7445719987
  - # 14
    frequency:   16.5589528748
  - # 15
    frequency:   19.4572001793

- q-position: [    0.0000000,    0.1400000,    0.0000000 ]
  distance:    0.0360866
  band:
  - # 1
    frequency:    1.0052041374
  - # 2
    frequency:    1.0787407806
  - # 3
    frequency:    1.6870949553
  - # 4
    frequency:    3.2183543321
  - # 5
    frequency:    4.1797782622
  - # 6
    frequency:    5.0767004375
  - # 7
    frequency:    6.2764310554
  - # 8
    frequency:    8.2015675134
  - # 9
    frequency:    8.2970895506
  - # 10
    frequency:    8.3433706167
  - # 11
    frequency:   10.4928119295
  - # 12
    frequency:   11.1767510442
  - # 13
    frequency:   14.7263038363
  - # 14
    frequency:   16.8269595011
  - # 15
    frequency:   19.4711529533

- q-position: [    0.0000000,    0.1500000,    0.0000000 ]
  distance:    0.0386643
  band:
  - # 1
    frequency:    1.0493707929
  - # 2
    frequency:    1.1457315969
  - # 3
    frequency:    1.7749932011
  - # 4
    frequency:    3.2840540117
  - # 5
    frequency:    4.2130273899
  - # 6
    frequency:    5.2089661467
  - # 7
    frequency:    6.3200239719
  - # 8
    frequency:    8.2075356228
  - # 9
    frequency:    8.3122846799
  - # 10
    frequency:    8.3682168088
  - # 11
    frequency:   10.4846914889
  - # 12
    frequency:   11.5261773851
  - # 13
    frequency:   14.7067550865
  - # 14
    frequency:   17.1048284728
  - # 15
    frequency:   19.4922674002

- q-position: [    0.0000000,    0.1600000,    0.0000000 ]
  distance:    0.0412419
  band:
  - # 1
    frequency:    1.0906004219
  - # 2
    frequency:    1.2105410728
  - # 3
    frequency:    1.8593194972
  - # 4
    frequency:    3.3490734713
  - # 5
    frequency:    4.2422710994
  - # 6
    frequency:    5.3441812532
  - # 7
    frequency:    6.3663092163
  - # 8
    frequency:    8.2119649066
  - # 9
    frequency:    8.3291427907
  - # 10
    frequency:    8.3948774391
  - # 11
    frequency:   10.4756621255
  - # 12
    frequency:   11.8415712983
  - # 13
    frequency:   14.6859487419
  - # 14
    frequency:   17.3856910109
  - # 15
    frequency:   19.5236346127

- q-position: [    0.0000000,    0.1700000,    0.0000000 ]
  distance:    0.0438195
  band:
  - # 1
    frequency:    1.1291732789
  - # 2
    frequency:    1.2730436445
  - # 3
    frequency:    1.9401863544
  - # 4
    frequency:    3.4128035814
  - # 5
    frequency:    4.2693861532
  - # 6
    frequency:    5.4804050614
  - # 7
    frequency:    6.4150912806
  - # 8
    frequency:    8.2150924936
  - # 9
    frequency:    8.3476088944
  - # 10
    frequency:    8.4233747675
  - # 11
    frequency:   10.4659573196
  - # 12
    frequency:   12.1232113980
  - # 13
    frequency:   14.6639118406
  - # 14
    frequency:   17.6606808830
  - # 15
    frequency:   19.5696397066

- q-position: [    0.0000000,    0.1800000,    0.0000000 ]
  distance:    0.0463971
  band:
  - # 1
    frequency:    1.1653520107
  - # 2
    frequency:    1.3331240040
  - # 3
    frequency:    2.0176797082
  - # 4
    frequency:    3.4747207968
  - # 5
    frequency:    4.2956573239
  - # 6
    frequency:    5.6162864067
  - # 7
    frequency:    6.4661309782
  - # 8
    frequency:    8.2171087197
  - # 9
    frequency:    8.3676004552
  - # 10
    frequency:    8.4537305703
  - # 11
    frequency:   10.4556381231
  - # 12
    frequency:   12.3725965520
  - # 13
    frequency:   14.6406759144
  - # 14
    frequency:   17.9190592514
  - # 15
    frequency:   19.6361327127

- q-position: [    0.0000000,    0.1900000,    0.0000000 ]
  distance:    0.0489747
  band:
  - # 1
    frequency:    1.1993766972
  - # 2
    frequency:    1.3906792816
  - # 3
    frequency:    2.0918636202
  - # 4
    frequency:    3.5343912109
  - # 5
    frequency:    4.3219682963
  - # 6
    frequency:    5.7508764142
  - # 7
    frequency:    6.5191464620
  - # 8
    frequency:    8.2181736425
  - # 9
    frequency:    8.3890283859
  - # 10
    frequency:    8.4859645210
  - # 11
    frequency:   10.4447207089
  - # 12
    frequency:   12.5919211284
  - # 13
    frequency:   14.6162774537
  - # 14
    frequency:   18.1491498277
  - # 15
    frequency:   19.7298076202

- q-position: [    0.0000000,    0.2000000,    0.0000000 ]
  distance:    0.0515523
  band:
  - # 1
    frequency:    1.2314623848
  - # 2
    frequency:    1.4456212240
  - # 3
    frequency:    2.1627858608
  - # 4
    frequency:    3.5914705001
  - # 5
    frequency:    4.3489308445
  - # 6
    frequency:    5.8834960865
  - # 7
    frequency:    6.5738164288
  - # 8
    frequency:    8.2184290886
  - # 9
    frequency:    8.4118058837
  - # 10
    frequency:    8.5200920779
  - # 11
    frequency:   10.4332052974
  - # 12
    frequency:   12.7837214795
  - # 13
    frequency:   14.5907583873
  - # 14
    frequency:   18.3408783076
  - # 15
    frequency:   19.8559358074

- q-position: [    0.0000000,    0.2100000,    0.0000000 ]
  distance:    0.0541300
  band:
  - # 1
    frequency:    1.2617984575
  - # 2
    frequency:    1.4978782379
  - # 3
    frequency:    2.2304838025
  - # 4
    frequency:    3.6457004537
  - # 5
    frequency:    4.3769672922
  - # 6
    frequency:    6.0136460932
  - # 7
    frequency:    6.6297854850
  - # 8
    frequency:    8.2180094289
  - # 9
    frequency:    8.4358505684
  - # 10
    frequency:    8.5561218518
  - # 11
    frequency:   10.4210858149
  - # 12
    frequency:   12.9506335931
  - # 13
    frequency:   14.5641665747
  - # 14
    frequency:   18.4894879977
  - # 15
    frequency:   20.0148494821

- q-position: [    0.0000000,    0.2200000,    0.0000000 ]
  distance:    0.0567076
  band:
  - # 1
    frequency:    1.2905492707
  - # 2
    frequency:    1.5473971632
  - # 3
    frequency:    2.2949902230
  - # 4
    frequency:    3.6969028482
  - # 5
    frequency:    4.4063623631
  - # 6
    frequency:    6.1409444109
  - # 7
    frequency:    6.6866714672
  - # 8
    frequency:    8.2170512328
  - # 9
    frequency:    8.4610837970
  - # 10
    frequency:    8.5940524583
  - # 11
    frequency:   10.4083542283
  - # 12
    frequency:   13.0952454220
  - # 13
    frequency:   14.5365563104
  - # 14
    frequency:   18.5974096809
  - # 15
    frequency:   20.2001922610

- q-position: [    0.0000000,    0.2300000,    0.0000000 ]
  distance:    0.0592852
  band:
  - # 1
    frequency:    1.3178555875
  - # 2
    frequency:    1.5941446476
  - # 3
    frequency:    2.3563387406
  - # 4
    frequency:    3.7449714352
  - # 5
    frequency:    4.4372960337
  - # 6
    frequency:    6.2650814282
  - # 7
    frequency:    6.7440743389
  - # 8
    frequency:    8.2157018308
  - # 9
    frequency:    8.4874291385
  - # 10
    frequency:    8.6338689083
  - # 11
    frequency:   10.3950030791
  - # 12
    frequency:   13.2200230661
  - # 13
    frequency:   14.5079888346
  - # 14
    frequency:   18.6720526060
  - # 15
    frequency:   20.4011828466

- q-position: [    0.0000000,    0.2400000,    0.0000000 ]
  distance:    0.0618628
  band:
  - # 1
    frequency:    1.3438364708
  - # 2
    frequency:    1.6381080079
  - # 3
    frequency:    2.4145686853
  - # 4
    frequency:    3.7898627756
  - # 5
    frequency:    4.4698648725
  - # 6
    frequency:    6.3857858579
  - # 7
    frequency:    6.8015861509
  - # 8
    frequency:    8.2141270469
  - # 9
    frequency:    8.5148108159
  - # 10
    frequency:    8.6755386519
  - # 11
    frequency:   10.3810273281
  - # 12
    frequency:   13.3272875025
  - # 13
    frequency:   14.4785328489
  - # 14
    frequency:   18.7218838355
  - # 15
    frequency:   20.6065438718

- q-position: [    0.0000000,    0.2500000,    0.0000000 ]
  distance:    0.0644404
  band:
  - # 1
    frequency:    1.3685913827
  - # 2
    frequency:    1.6792954933
  - # 3
    frequency:    2.4697292605
  - # 4
    frequency:    3.8315865803
  - # 5
    frequency:    4.5040964956
  - # 6
    frequency:    6.5027973855
  - # 7
    frequency:    6.8588014656
  - # 8
    frequency:    8.2125184305
  - # 9
    frequency:    8.5431523471
  - # 10
    frequency:    8.7190074507
  - # 11
    frequency:   10.3664259216
  - # 12
    frequency:   13.4192212094
  - # 13
    frequency:   14.4482650326
  - # 14
    frequency:   18.7540036796
  - # 15
    frequency:   20.8069064629

- q-position: [    0.0000000,    0.2600000,    0.0000000 ]
  distance:    0.0670180
  band:
  - # 1
    frequency:    1.3922023235
  - # 2
    frequency:    1.7177359043
  - # 3
    frequency:    2.5218828730
  - # 4
    frequency:    3.8701961100
  - # 5
    frequency:    4.5399599555
  - # 6
    frequency:    6.6158436751
  - # 7
    frequency:    6.9153276131
  - # 8
    frequency:    8.2111002139
  - # 9
    frequency:    8.5723753795
  - # 10
    frequency:    8.7641953174
  - # 11
    frequency:   10.3512032429
  - # 12
    frequency:   13.4978890929
  - # 13
    frequency:   14.4172705517
  - # 14
    frequency:   18.7735910536
  - # 15
    frequency:   20.9953306972

- q-position: [    0.0000000,    0.2700000,    0.0000000 ]
  distance:    0.0695957
  band:
  - # 1
    frequency:    1.4147359045
  - # 2
    frequency:    1.7534775672
  - # 3
    frequency:    2.5711075225
  - # 4
    frequency:    3.9057790685
  - # 5
    frequency:    4.5773737469
  - # 6
    frequency:    6.7246205462
  - # 7
    frequency:    6.9707941671
  - # 8
    frequency:    8.2101359744
  - # 9
    frequency:    8.6023986276
  - # 10
    frequency:    8.8109928071
  - # 11
    frequency:   10.3353705152
  - # 12
    frequency:   13.5652632316
  - # 13
    frequency:   14.3856435552
  - # 14
    frequency:   18.7842117095
  - # 15
    frequency:   21.1669583509

- q-position: [    0.0000000,    0.2800000,    0.0000000 ]
  distance:    0.0721733
  band:
  - # 1
    frequency:    1.4362452935
  - # 2
    frequency:    1.7865867125
  - # 3
    frequency:    2.6174981386
  - # 4
    frequency:    3.9384492895
  - # 5
    frequency:    4.6162124073
  - # 6
    frequency:    6.8287751463
  - # 7
    frequency:    7.0248611007
  - # 8
    frequency:    8.2099345454
  - # 9
    frequency:    8.6331368030
  - # 10
    frequency:    8.8592579591
  - # 11
    frequency:   10.3189471733
  - # 12
    frequency:   13.6232450172
  - # 13
    frequency:   14.3534876470
  - # 14
    frequency:   18.7882811274
  - # 15
    frequency:   21.3185116900

- q-position: [    0.0000000,    0.2900000,    0.0000000 ]
  distance:    0.0747509
  band:
  - # 1
    frequency:    1.4567719998
  - # 2
    frequency:    1.8171453483
  - # 3
    frequency:    2.6611667530
  - # 4
    frequency:    3.9683394010
  - # 5
    frequency:    4.6563122479
  - # 6
    frequency:    6.9278930289
  - # 7
    frequency:    7.0772251971
  - # 8
    frequency:    8.2108540266
  - # 9
    frequency:    8.6644994269
  - # 10
    frequency:    8.9088141742
  - # 11
    frequency:   10.3019621927
  - # 12
    frequency:   13.6736810657
  - # 13
    frequency:   14.3209163215
  - # 14
    frequency:   18.7874406765
  - # 15
    frequency:   21.4478825885

- q-position: [    0.0000000,    0.3000000,    0.0000000 ]
  distance:    0.0773285
  band:
  - # 1
    frequency:    1.4763474894
  - # 2
    frequency:    1.8452487568
  - # 3
    frequency:    2.7022413992
  - # 4
    frequency:    3.9955945424
  - # 5
    frequency:    4.6974764822
  - # 6
    frequency:    7.0214913900
  - # 7
    frequency:    7.1276244388
  - # 8
    frequency:    8.2133016734
  - # 9
    frequency:    8.6963894314
  - # 10
    frequency:    8.9594492483
  - # 11
    frequency:   10.2844553454
  - # 12
    frequency:   13.7183710179
  - # 13
    frequency:   14.2880533447
  - # 14
    frequency:   18.7828171481
  - # 15
    frequency:   21.5538431190

- q-position: [    0.0000000,    0.3100000,    0.0000000 ]
  distance:    0.0799061
  band:
  - # 1
    frequency:    1.4949946318
  - # 2
    frequency:    1.8710027603
  - # 3
    frequency:    2.7408636507
  - # 4
    frequency:    4.0203671289
  - # 5
    frequency:    4.7394798643
  - # 6
    frequency:    7.1090223676
  - # 7
    frequency:    7.1758402695
  - # 8
    frequency:    8.2177260028
  - # 9
    frequency:    8.7287014728
  - # 10
    frequency:    9.0109156959
  - # 11
    frequency:   10.2664783335
  - # 12
    frequency:   13.7590663452
  - # 13
    frequency:   14.2550330614
  - # 14
    frequency:   18.7751919147
  - # 15
    frequency:   21.6358516832

- q-position: [    0.0000000,    0.3200000,    0.0000000 ]
  distance:    0.0824838
  band:
  - # 1
    frequency:    1.5127289885
  - # 2
    frequency:    1.8945209113
  - # 3
    frequency:    2.7771847582
  - # 4
    frequency:    4.0428125983
  - # 5
    frequency:    4.7820728723
  - # 6
    frequency:    7.1898919429
  - # 7
    frequency:    7.2216977908
  - # 8
    frequency:    8.2245959441
  - # 9
    frequency:    8.7613199213
  - # 10
    frequency:    9.0629323793
  - # 11
    frequency:   10.2480957452
  - # 12
    frequency:   13.7974598064
  - # 13
    frequency:   14.2220006008
  - # 14
    frequency:   18.7651094818
  - # 15
    frequency:   21.6939247868

- q-position: [    0.0000000,    0.3300000,    0.0000000 ]
  distance:    0.0850614
  band:
  - # 1
    frequency:    1.5295599557
  - # 2
    frequency:    1.9159217507
  - # 3
    frequency:    2.8113604267
  - # 4
    frequency:    4.0630860396
  - # 5
    frequency:    4.8249854495
  - # 6
    frequency:    7.2635005630
  - # 7
    frequency:    7.2650641132
  - # 8
    frequency:    8.2343613321
  - # 9
    frequency:    8.7941165396
  - # 10
    frequency:    9.1151873514
  - # 11
    frequency:   10.2293857708
  - # 12
    frequency:   13.8351654945
  - # 13
    frequency:   14.1891119489
  - # 14
    frequency:   18.7529474200
  - # 15
    frequency:   21.7285521594

- q-position: [    0.0000000,    0.3400000,    0.0000000 ]
  distance:    0.0876390
  band:
  - # 1
    frequency:    1.5454917780
  - # 2
    frequency:    1.9353262572
  - # 3
    frequency:    2.8435443907
  - # 4
    frequency:    4.0813395812
  - # 5
    frequency:    4.8679303275
  - # 6
    frequency:    7.3058451956
  - # 7
    frequency:    7.3293091031
  - # 8
    frequency:    8.2473914573
  - # 9
    frequency:    8.8269479444
  - # 10
    frequency:    9.1673417228
  - # 11
    frequency:   10.2104406265
  - # 12
    frequency:   13.8736896167
  - # 13
    frequency:   14.1565338503
  - # 14
    frequency:   18.7389622028
  - # 15
    frequency:   21.7406403610

- q-position: [    0.0000000,    0.3500000,    0.0000000 ]
  distance:    0.0902166
  band:
  - # 1
    frequency:    1.5605244470
  - # 2
    frequency:    1.9528555759
  - # 3
    frequency:    2.8738810893
  - # 4
    frequency:    4.0977204163
  - # 5
    frequency:    4.9106059821
  - # 6
    frequency:    7.3439815776
  - # 7
    frequency:    7.3869259468
  - # 8
    frequency:    8.2638960025
  - # 9
    frequency:    8.8596530452
  - # 10
    frequency:    9.2190343068
  - # 11
    frequency:   10.1913666540
  - # 12
    frequency:   13.9143923874
  - # 13
    frequency:   14.1244434940
  - # 14
    frequency:   18.7233203333
  - # 15
    frequency:   21.7314751856

- q-position: [    0.0000000,    0.3600000,    0.0000000 ]
  distance:    0.0927942
  band:
  - # 1
    frequency:    1.5746545001
  - # 2
    frequency:    1.9686290816
  - # 3
    frequency:    2.9024978997
  - # 4
    frequency:    4.1123693450
  - # 5
    frequency:    4.9526993138
  - # 6
    frequency:    7.3794434308
  - # 7
    frequency:    7.4361980446
  - # 8
    frequency:    8.2838452296
  - # 9
    frequency:    8.8920507665
  - # 10
    frequency:    9.2698867815
  - # 11
    frequency:   10.1722840985
  - # 12
    frequency:   13.9584417597
  - # 13
    frequency:   14.0930279343
  - # 14
    frequency:   18.7061210092
  - # 15
    frequency:   21.7026963491

- q-position: [    0.0000000,    0.3700000,    0.0000000 ]
  distance:    0.0953718
  band:
  - # 1
    frequency:    1.5878757323
  - # 2
    frequency:    1.9827627891
  - # 3
    frequency:    2.9294975276
  - # 4
    frequency:    4.1254197258
  - # 5
    frequency:    4.9938881741
  - # 6
    frequency:    7.4122253247
  - # 7
    frequency:    7.4772771379
  - # 8
    frequency:    8.3069174355
  - # 9
    frequency:    8.9239384500
  - # 10
    frequency:    9.3195091268
  - # 11
    frequency:   10.1533266129
  - # 12
    frequency:   14.0067602216
  - # 13
    frequency:   14.0624831933
  - # 14
    frequency:   18.6874148302
  - # 15
    frequency:   21.6562796766

- q-position: [    0.0000000,    0.3800000,    0.0000000 ]
  distance:    0.0979495
  band:
  - # 1
    frequency:    1.6001798321
  - # 2
    frequency:    1.9953680945
  - # 3
    frequency:    2.9549512499
  - # 4
    frequency:    4.1369967426
  - # 5
    frequency:    5.0338438891
  - # 6
    frequency:    7.4423410423
  - # 7
    frequency:    7.5106330627
  - # 8
    frequency:    8.3325004286
  - # 9
    frequency:    8.9550913675
  - # 10
    frequency:    9.3675051472
  - # 11
    frequency:   10.1346405801
  - # 12
    frequency:   14.0330129889
  - # 13
    frequency:   14.0599665555
  - # 14
    frequency:   18.6672222163
  - # 15
    frequency:   21.5945227162

- q-position: [    0.0000000,    0.3900000,    0.0000000 ]
  distance:    0.1005271
  band:
  - # 1
    frequency:    1.6115569522
  - # 2
    frequency:    2.0065508013
  - # 3
    frequency:    2.9788937258
  - # 4
    frequency:    4.1472169092
  - # 5
    frequency:    5.0722339438
  - # 6
    frequency:    7.4698187043
  - # 7
    frequency:    7.5370047156
  - # 8
    frequency:    8.3597546616
  - # 9
    frequency:    8.9852636966
  - # 10
    frequency:    9.4134779538
  - # 11
    frequency:   10.1163843719
  - # 12
    frequency:   14.0048270384
  - # 13
    frequency:   14.1183153139
  - # 14
    frequency:   18.6455549216
  - # 15
    frequency:   21.5200296665

- q-position: [    0.0000000,    0.4000000,    0.0000000 ]
  distance:    0.1031047
  band:
  - # 1
    frequency:    1.6219962217
  - # 2
    frequency:    2.0164103751
  - # 3
    frequency:    3.0013200238
  - # 4
    frequency:    4.1561877473
  - # 5
    frequency:    5.1087249894
  - # 6
    frequency:    7.4946963691
  - # 7
    frequency:    7.5573058195
  - # 8
    frequency:    8.3877189124
  - # 9
    frequency:    9.0141911149
  - # 10
    frequency:    9.4570353447
  - # 11
    frequency:   10.0987276467
  - # 12
    frequency:   13.9781388924
  - # 13
    frequency:   14.1816377899
  - # 14
    frequency:   18.6224439625
  - # 15
    frequency:   21.4356909260

- q-position: [    0.0000000,    0.4100000,    0.0000000 ]
  distance:    0.1056823
  band:
  - # 1
    frequency:    1.6314862068
  - # 2
    frequency:    2.0250393635
  - # 3
    frequency:    3.0221853442
  - # 4
    frequency:    4.1640075870
  - # 5
    frequency:    5.1429863154
  - # 6
    frequency:    7.5170182059
  - # 7
    frequency:    7.5725183148
  - # 8
    frequency:    8.4154239044
  - # 9
    frequency:    9.0415948935
  - # 10
    frequency:    9.4977950707
  - # 11