240  
8    

1    
  0.0077786572244224   0.0000000000000000   0.0062843051950826
  -0.1348073100    0.0000000000   -0.1789962200
   0.0373769500    0.0000000000    0.0040828400
   0.0089958000    0.0000000000   -0.0004831600
   0.0461710700    0.0000000000   -0.0070555000
  -0.0048273900   -0.0046079100   -0.0014922100
  -0.0003147400    0.0056975800   -0.0006402500
   0.0033457000   -0.0001778000   -0.0002114300
   0.0014095600   -0.0073700900   -0.0027264700
  -0.0009890800    0.0000000000   -0.0004839400
  -0.0002059300    0.0000000000    0.0000082100
   0.0010939300    0.0000000000   -0.0001652900
   0.0001563100    0.0000000000   -0.0004308400
  -0.0048273900    0.0046079100   -0.0014922100
  -0.0003147400   -0.0056975800   -0.0006402500
   0.0033457000    0.0001778000   -0.0002114300
   0.0014095600    0.0073700900   -0.0027264700
  -0.0035341400    0.0000000000    0.0201212100
   0.0040362900    0.0000000000    0.0043439900
   0.0026428300    0.0000000000    0.0004270800
  -0.0030404100    0.0000000000   -0.0019060600
  -0.0023008900    0.0035443700    0.0012158200
   0.0015654800    0.0022874600    0.0014462400
   0.0015547700    0.0000755100    0.0003578900
  -0.0008456000    0.0001284300    0.0003720000
  -0.0008242400    0.0000000000    0.0004249800
   0.0000949300    0.0000000000    0.0004201900
   0.0007900500    0.0000000000    0.0003142400
  -0.0000532700    0.0000000000    0.0002950200
  -0.0023008900   -0.0035443700    0.0012158200
   0.0015654800   -0.0022874600    0.0014462400
   0.0015547700   -0.0000755100    0.0003578900
  -0.0008456000   -0.0001284300    0.0003720000
  -0.0035061700    0.0000000000    0.0199742800
  -0.0020306400    0.0000000000   -0.0032447500
   0.0026384600    0.0000000000    0.0003407000
   0.0030081100    0.0000000000    0.0054963100
  -0.0022912500   -0.0025158300    0.0011348700
  -0.0000768600    0.0006428900   -0.0006652800
   0.0015525200   -0.0000487300    0.0002719400
   0.0007892000   -0.0015061700    0.0023123400
  -0.0008242900    0.0000000000    0.0003462000
  -0.0000307200    0.0000000000    0.0001826500
   0.0007892000    0.0000000000    0.0002261600
   0.0000732700    0.0000000000    0.0003649500
  -0.0022912500    0.0025158300    0.0011348700
  -0.0000768600   -0.0006428900   -0.0006652800
   0.0015525200    0.0000487300    0.0002719400
   0.0007892000    0.0015061700    0.0023123400
   0.0070707200    0.0235524700    0.0147610300
  -0.0080007900   -0.0086657700   -0.0092727900
   0.0026104400   -0.0008161600   -0.0011796700
   0.0034258800    0.0012493100    0.0015687000
   0.0070707200   -0.0235524700    0.0147610300
  -0.0080007900    0.0086657700   -0.0092727900
   0.0026104400    0.0008161600   -0.0011796700
   0.0034258800   -0.0012493100    0.0015687000
  -0.0005635700   -0.0011455000    0.0004081800
  -0.0010008100    0.0003217500   -0.0000083800
   0.0006869000    0.0004344000   -0.0000492800
   0.0009148500   -0.0006569200    0.0002686300
  -0.0005635700    0.0011455000    0.0004081800
  -0.0010008100   -0.0003217500   -0.0000083800
   0.0006869000   -0.0004344000   -0.0000492800
   0.0009148500    0.0006569200    0.0002686300
  -0.0106133400   -0.0039145500   -0.0044281400
   0.0091531000   -0.0159028100    0.0106397200
   0.0028836500   -0.0012777700    0.0003174900
   0.0019567000    0.0013495400   -0.0021837600
  -0.0106133400    0.0039145500   -0.0044281400
   0.0091531000    0.0159028100    0.0106397200
   0.0028836500    0.0012777700    0.0003174900
   0.0019567000   -0.0013495400   -0.0021837600
  -0.0006311000    0.0000007300   -0.0010670500
  -0.0007084200    0.0009219000   -0.0008062500
   0.0007936000    0.0004803300   -0.0003444000
   0.0005345700   -0.0002178600   -0.0006818500
  -0.0006311000   -0.0000007300   -0.0010670500
  -0.0007084200   -0.0009219000   -0.0008062500
   0.0007936000   -0.0004803300   -0.0003444000
   0.0005345700    0.0002178600   -0.0006818500
  -0.0007327200    0.0005405600    0.0026065400
  -0.0012647400   -0.0000088100    0.0018799700
   0.0010688500   -0.0002926100    0.0003421400
   0.0009295500    0.0002419100    0.0006744100
  -0.0007327200   -0.0005405600    0.0026065400
  -0.0012647400    0.0000088100    0.0018799700
   0.0010688500    0.0002926100    0.0003421400
   0.0009295500   -0.0002419100    0.0006744100
  -0.0005126000   -0.0002447900    0.0005594100
  -0.0004637100    0.0003870700    0.0004588800
   0.0005077100    0.0002085100    0.0001127900
   0.0004682000   -0.0001669800    0.0002074000
  -0.0005126000    0.0002447900    0.0005594100
  -0.0004637100   -0.0003870700    0.0004588800
   0.0005077100   -0.0002085100    0.0001127900
   0.0004682000    0.0001669800    0.0002074000
   0.0229847100    0.0000000000    0.0092170900
   0.0174176600    0.0000000000    0.0130986100
  -0.0094932200    0.0000000000    0.0012349000
  -0.0118080500    0.0000000000   -0.0016968200
   0.0017826500    0.0023771300    0.0015397200
   0.0038716100   -0.0002625800   -0.0000399000
  -0.0025367000   -0.0009537500   -0.0000460000
  -0.0028798000    0.0013734800    0.0000706000
   0.0005242500    0.0000000000    0.0001418900
   0.0009129600    0.0000000000   -0.0000602300
  -0.0006610600    0.0000000000   -0.0001903900
  -0.0008371900    0.0000000000    0.0001014800
   0.0017826500   -0.0023771300    0.0015397200
   0.0038716100    0.0002625800   -0.0000399000
  -0.0025367000    0.0009537500   -0.0000460000
  -0.0028798000   -0.0013734800    0.0000706000
   0.0066884800    0.0000000000   -0.0024045000
  -0.0026402400    0.0000000000   -0.0049956800
  -0.0029964000    0.0000000000   -0.0006780000
  -0.0009340900    0.0000000000    0.0009124800
   0.0014793600   -0.0005684600   -0.0003294000
   0.0004537100   -0.0025951900   -0.0022016300
  -0.0014201500   -0.0005818100   -0.0004388200
  -0.0004922700    0.0002686500    0.0002849600
   0.0005877200    0.0000000000   -0.0000338700
   0.0003886500    0.0000000000   -0.0002948600
  -0.0005622500    0.0000000000   -0.0003270100
  -0.0004134300    0.0000000000   -0.0000690100
   0.0014793600    0.0005684600   -0.0003294000
   0.0004537100    0.0025951900   -0.0022016300
  -0.0014201500    0.0005818100   -0.0004388200
  -0.0004922700   -0.0002686500    0.0002849600
  -0.0022039800    0.0000000000   -0.0029726700
   0.0065441600    0.0000000000   -0.0017056700
  -0.0015367600    0.0000000000   -0.0001702800
  -0.0028341600    0.0000000000   -0.0010619400
   0.0006455700    0.0009442800   -0.0013051400
   0.0016116400   -0.0003464400   -0.0001844500
  -0.0009151800   -0.0001970100   -0.0002467500
  -0.0013741000    0.0002768900   -0.0005574000
   0.0004290700    0.0000000000   -0.0003220100
   0.0006222900    0.0000000000   -0.0004680000
  -0.0004663800    0.0000000000   -0.0003070700
  -0.0005837900    0.0000000000   -0.0002658300
   0.0006455700   -0.0009442800   -0.0013051400
   0.0016116400    0.0003464400   -0.0001844500
  -0.0009151800    0.0001970100   -0.0002467500
  -0.0013741000   -0.0002768900   -0.0005574000
   0.0111327300    0.0043381300    0.0113487600
  -0.0041919000    0.0088956300    0.0018740200
  -0.0019928500   -0.0001920400    0.0000402900
  -0.0062539800   -0.0108985200   -0.0003546600
   0.0111327300   -0.0043381300    0.0113487600
  -0.0041919000   -0.0088956300    0.0018740200
  -0.0019928500    0.0001920400    0.0000402900
  -0.0062539800    0.0108985200   -0.0003546600
   0.0009829600    0.0011695100   -0.0002313400
   0.0001384100   -0.0013112400    0.0003953700
  -0.0009040500    0.0000847600   -0.0000438800
  -0.0002924400    0.0016547500   -0.0003700600
   0.0009829600   -0.0011695100   -0.0002313400
   0.0001384100    0.0013112400    0.0003953700
  -0.0009040500   -0.0000847600   -0.0000438800
  -0.0002924400   -0.0016547500   -0.0003700600
   0.0024833300    0.0046712200   -0.0037075900
  -0.0020781500    0.0013793200   -0.0020915000
  -0.0013115500    0.0001004200   -0.0001657600
   0.0010803500   -0.0003521500   -0.0004390500
   0.0024833300   -0.0046712200   -0.0037075900
  -0.0020781500   -0.0013793200   -0.0020915000
  -0.0013115500   -0.0001004200   -0.0001657600
   0.0010803500    0.0003521500   -0.0004390500
   0.0006498900   -0.0010324200    0.0001187700
  -0.0002089700   -0.0009525700   -0.0000386600
  -0.0005315000   -0.0000760100   -0.0001979600
   0.0001016400    0.0000221400   -0.0001132900
   0.0006498900    0.0010324200    0.0001187700
  -0.0002089700    0.0009525700   -0.0000386600
  -0.0005315000    0.0000760100   -0.0001979600
   0.0001016400   -0.0000221400   -0.0001132900
   0.0015875000   -0.0043740000   -0.0023396100
  -0.0000429700    0.0003838500    0.0001268700
  -0.0009283000   -0.0000947500   -0.0003937100
  -0.0006434200   -0.0013463100   -0.0016166200
   0.0015875000    0.0043740000   -0.0023396100
  -0.0000429700   -0.0003838500    0.0001268700
  -0.0009283000    0.0000947500   -0.0003937100
  -0.0006434200    0.0013463100   -0.0016166200
   0.0005322000    0.0006474300   -0.0006183300
   0.0000124300   -0.0003829100   -0.0001587000
  -0.0004592400    0.0000577100   -0.0002859900
  -0.0000692600    0.0008392600   -0.0006466800
   0.0005322000   -0.0006474300   -0.0006183300
   0.0000124300    0.0003829100   -0.0001587000
  -0.0004592400   -0.0000577100   -0.0002859900
  -0.0000692600   -0.0008392600   -0.0006466800
   0.0089073400    0.0000000000   -0.0226133500
  -0.0025069400    0.0000000000    0.0061519400
  -0.0017472000    0.0000000000    0.0002021100
  -0.0038770500    0.0000000000   -0.0057583800
   0.0027402100    0.0006869800    0.0001793500
  -0.0004376600   -0.0008721300    0.0012404100
  -0.0010307300    0.0000857500    0.0002414700
  -0.0014955500    0.0019259600   -0.0012145900
   0.0005052800    0.0000000000    0.0001985800
   0.0001085000    0.0000000000    0.0003395200
  -0.0005328500    0.0000000000    0.0002489000
  -0.0000676700    0.0000000000    0.0001418600
   0.0027402100   -0.0006869800    0.0001793500
  -0.0004376600    0.0008721300    0.0012404100
  -0.0010307300   -0.0000857500    0.0002414700
  -0.0014955500   -0.0019259600   -0.0012145900
   0.0154354700    0.0000000000    0.1174884900
  -0.0035823100    0.0000000000   -0.0060681300
  -0.0012774400    0.0000000000    0.0010555500
  -0.0030008900    0.0000000000    0.0118443700
   0.0015918000   -0.0002771000    0.0028990600
  -0.0011892600   -0.0016718800    0.0007776400
  -0.0008667000   -0.0000393500    0.0007518600
   0.0008247400   -0.0003454600    0.0030320800
   0.0004176900    0.0000000000    0.0010570600
  -0.0000406000    0.0000000000    0.0004783000
  -0.0004103300    0.0000000000    0.0006937500
   0.0000353200    0.0000000000    0.0010251900
   0.0015918000    0.0002771000    0.0028990600
  -0.0011892600    0.0016718800    0.0007776400
  -0.0008667000    0.0000393500    0.0007518600
   0.0008247400    0.0003454600    0.0030320800
   0.0008351500    0.0000000000   -0.0081665400
  -0.0000788800    0.0000000000   -0.0021722100
  -0.0007465400    0.0000000000   -0.0002932400
   0.0000130400    0.0000000000   -0.0013337100
   0.0005843100   -0.0000472200   -0.0017541800
  -0.0000287300   -0.0001761700   -0.0008309300
  -0.0004895900   -0.0000023400   -0.0001307300
  -0.0000665300    0.0002134200   -0.0005999700
   0.0004059200    0.0000000000   -0.0002928800
  -0.0000416400    0.0000000000   -0.0001468300
  -0.0003229600    0.0000000000   -0.0000265400
  -0.0000382400    0.0000000000   -0.0001139700
   0.0005843100    0.0000472200   -0.0017541800
  -0.0000287300    0.0001761700   -0.0008309300
  -0.0004895900    0.0000023400   -0.0001307300
  -0.0000665300   -0.0002134200   -0.0005999700

1    
 -0.0077786572244224   0.0000000000000000  -0.0062843051950826
   0.1366571500    0.0000000000    0.1749005300
  -0.0374440500    0.0000000000   -0.0037235100
  -0.0090594600    0.0000000000    0.0008911100
  -0.0467640600    0.0000000000    0.0075665500
   0.0048579300    0.0044481200    0.0019147800
   0.0002796700   -0.0057197400    0.0010452000
  -0.0033700200    0.0001792700    0.0006246600
  -0.0013903800    0.0074408300    0.0031575800
   0.0009939400    0.0000000000    0.0008915600
   0.0002019300    0.0000000000    0.0004032700
  -0.0011009300    0.0000000000    0.0005781100
  -0.0001500600    0.0000000000    0.0008479400
   0.0048579300   -0.0044481200    0.0019147800
   0.0002796700    0.0057197400    0.0010452000
  -0.0033700200   -0.0001792700    0.0006246600
  -0.0013903800   -0.0074408300    0.0031575800
   0.0035092200    0.0000000000   -0.0199419700
  -0.0040444200    0.0000000000   -0.0040619500
  -0.0026555100    0.0000000000   -0.0001227500
   0.0030776100    0.0000000000    0.0022199500
   0.0022936800   -0.0035551200   -0.0009250300
  -0.0015648500   -0.0022864800   -0.0011448200
  -0.0015583800   -0.0000728700   -0.0000538700
   0.0008559700   -0.0001297700   -0.0000670100
   0.0008283200    0.0000000000   -0.0001235100
  -0.0000957000    0.0000000000   -0.0001162600
  -0.0007926000    0.0000000000   -0.0000043600
   0.0000527200    0.0000000000    0.0000087300
   0.0022936800    0.0035551200   -0.0009250300
  -0.0015648500    0.0022864800   -0.0011448200
  -0.0015583800    0.0000728700   -0.0000538700
   0.0008559700    0.0001297700   -0.0000670100
   0.0035368200    0.0000000000   -0.0200831200
   0.0020491400    0.0000000000    0.0034048100
  -0.0026592100    0.0000000000   -0.0002095600
  -0.0030346500    0.0000000000   -0.0054319300
   0.0023028400    0.0025456700   -0.0010063700
   0.0000787900   -0.0006452400    0.0008094400
  -0.0015608900    0.0000528200   -0.0001387600
  -0.0007944800    0.0015210600   -0.0021920100
   0.0008283300    0.0000000000   -0.0002034700
   0.0000281300    0.0000000000   -0.0000437400
  -0.0007933600    0.0000000000   -0.0000931000
  -0.0000705400    0.0000000000   -0.0002290900
   0.0023028400   -0.0025456700   -0.0010063700
   0.0000787900    0.0006452400    0.0008094400
  -0.0015608900   -0.0000528200   -0.0001387600
  -0.0007944800   -0.0015210600   -0.0021920100
  -0.0071204100   -0.0239455100   -0.0145940800
   0.0079420500    0.0086970700    0.0097247900
  -0.0026238700    0.0008225400    0.0015492100
  -0.0034561700   -0.0012612800   -0.0012179200
  -0.0071204100    0.0239455100   -0.0145940800
   0.0079420500   -0.0086970700    0.0097247900
  -0.0026238700   -0.0008225400    0.0015492100
  -0.0034561700    0.0012612800   -0.0012179200
   0.0005700900    0.0011511500   -0.0000399000
   0.0010043400   -0.0003263600    0.0003815100
  -0.0006942900   -0.0004355900    0.0004141900
  -0.0009168200    0.0006634000    0.0000926900
   0.0005700900   -0.0011511500   -0.0000399000
   0.0010043400    0.0003263600    0.0003815100
  -0.0006942900    0.0004355900    0.0004141900
  -0.0009168200   -0.0006634000    0.0000926900
   0.0107196900    0.0039569500    0.0036849600
  -0.0091423000    0.0158549500   -0.0113256200
  -0.0028962800    0.0012868600   -0.0010601400
  -0.0019685200   -0.0013610300    0.0014644900
   0.0107196900   -0.0039569500    0.0036849600
  -0.0091423000   -0.0158549500   -0.0113256200
  -0.0028962800   -0.0012868600   -0.0010601400
  -0.0019685200    0.0013610300    0.0014644900
   0.0006378400   -0.0000050600    0.0003330700
   0.0007062700   -0.0009264900    0.0000641400
  -0.0007982200   -0.0004804900   -0.0003916200
  -0.0005344700    0.0002202900   -0.0000493200
   0.0006378400    0.0000050600    0.0003330700
   0.0007062700    0.0009264900    0.0000641400
  -0.0007982200    0.0004804900   -0.0003916200
  -0.0005344700   -0.0002202900   -0.0000493200
   0.0007331200   -0.0005461900   -0.0028584100
   0.0012728800    0.0000057200   -0.0021202900
  -0.0010730900    0.0002938300   -0.0005731900
  -0.0009335300   -0.0002454000   -0.0009122100
   0.0007331200    0.0005461900   -0.0028584100
   0.0012728800   -0.0000057200   -0.0021202900
  -0.0010730900   -0.0002938300   -0.0005731900
  -0.0009335300    0.0002454000   -0.0009122100
   0.0005149400    0.0002483800   -0.0007936200
   0.0004644100   -0.0003850400   -0.0006898300
  -0.0005093200   -0.0002071800   -0.0003434800
  -0.0004694500    0.0001695400   -0.0004397400
   0.0005149400   -0.0002483800   -0.0007936200
   0.0004644100    0.0003850400   -0.0006898300
  -0.0005093200    0.0002071800   -0.0003434800
  -0.0004694500   -0.0001695400   -0.0004397400
  -0.0261012100    0.0000000000   -0.0097804200
  -0.0148240400    0.0000000000   -0.0137091400
   0.0095791100    0.0000000000   -0.0015906400
   0.0118718000    0.0000000000    0.0013605300
  -0.0018458400   -0.0023735800   -0.0019066100
  -0.0038336600    0.0002955200   -0.0002979200
   0.0025564000    0.0009570700   -0.0002887300
   0.0028953400   -0.0013874400   -0.0004079900
  -0.0005341500    0.0000000000   -0.0004784300
  -0.0009112100    0.0000000000   -0.0002753000
   0.0006703000    0.0000000000   -0.0001446100
   0.0008370500    0.0000000000   -0.0004384700
  -0.0018458400    0.0023735800   -0.0019066100
  -0.0038336600   -0.0002955200   -0.0002979200
   0.0025564000   -0.0009570700   -0.0002887300
   0.0028953400    0.0013874400   -0.0004079900
  -0.0067539800    0.0000000000    0.0021321400
   0.0026545100    0.0000000000    0.0046866400
   0.0030079800    0.0000000000    0.0003674500
   0.0009343800    0.0000000000   -0.0012380500
  -0.0014839700    0.0005713700    0.0000196100
  -0.0004511600    0.0025888500    0.0018824200
   0.0014230000    0.0005828000    0.0001239100
   0.0004919500   -0.0002712000   -0.0006055200
  -0.0005919300    0.0000000000   -0.0002823500
  -0.0003878100    0.0000000000   -0.0000195600
   0.0005644300    0.0000000000    0.0000105500
   0.0004149800    0.0000000000   -0.0002484900
  -0.0014839700   -0.0005713700    0.0000196100
  -0.0004511600   -0.0025888500    0.0018824200
   0.0014230000   -0.0005828000    0.0001239100
   0.0004919500    0.0002712000   -0.0006055200
   0.0022301100    0.0000000000    0.0026532900
  -0.0066046600    0.0000000000    0.0013802800
   0.0015483000    0.0000000000   -0.0001705300
   0.0028604000    0.0000000000    0.0007312500
  -0.0006482600   -0.0009519200    0.0009701200
  -0.0016239000    0.0003462600   -0.0001588200
   0.0009211500    0.0001969500   -0.0000947600
   0.0013832100   -0.0002797800    0.0002188700
  -0.0004328800    0.0000000000   -0.0000205900
  -0.0006243100    0.0000000000    0.0001255100
   0.0004706600    0.0000000000   -0.0000342400
   0.0005854700    0.0000000000   -0.0000757600
  -0.0006482600    0.0009519200    0.0009701200
  -0.0016239000   -0.0003462600   -0.0001588200
   0.0009211500   -0.0001969500   -0.0000947600
   0.0013832100    0.0002797800    0.0002188700
  -0.0111275100   -0.0040667100   -0.0115595600
   0.0041968800   -0.0089288900   -0.0022064900
   0.0020071900    0.0001907100   -0.0003772800
   0.0063275300    0.0110022700    0.0000214700
  -0.0111275100    0.0040667100   -0.0115595600
   0.0041968800    0.0089288900   -0.0022064900
   0.0020071900   -0.0001907100   -0.0003772800
   0.0063275300   -0.0110022700    0.0000214700
  -0.0009877700   -0.0011344200   -0.0001153700
  -0.0001314900    0.0013242800   -0.0007331000
   0.0009096700   -0.0000866400   -0.0002909400
   0.0002878000   -0.0016628900    0.0000371500
  -0.0009877700    0.0011344200   -0.0001153700
  -0.0001314900   -0.0013242800   -0.0007331000
   0.0009096700    0.0000866400   -0.0002909400
   0.0002878000    0.0016628900    0.0000371500
  -0.0024746400   -0.0046975900    0.0034020900
   0.0020734100   -0.0013860900    0.0017750500
   0.0013188400   -0.0001012500   -0.0001523200
  -0.0010919700    0.0003546900    0.0001272400
  -0.0024746400    0.0046975900    0.0034020900
   0.0020734100    0.0013860900    0.0017750500
   0.0013188400    0.0001012500   -0.0001523200
  -0.0010919700   -0.0003546900    0.0001272400
  -0.0006514200    0.0010355900   -0.0004337100
   0.0002103400    0.0009508700   -0.0002765900
   0.0005341300    0.0000733300   -0.0001189300
  -0.0001039000   -0.0000219900   -0.0002029500
  -0.0006514200   -0.0010355900   -0.0004337100
   0.0002103400   -0.0009508700   -0.0002765900
   0.0005341300   -0.0000733300   -0.0001189300
  -0.0001039000    0.0000219900   -0.0002029500
  -0.0015984200    0.0044174600    0.0020163600
   0.0000434200   -0.0003844400   -0.0004737000
   0.0009339800    0.0000976300    0.0000538200
   0.0006466000    0.0013636300    0.0012849500
  -0.0015984200   -0.0044174600    0.0020163600
   0.0000434200    0.0003844400   -0.0004737000
   0.0009339800   -0.0000976300    0.0000538200
   0.0006466000   -0.0013636300    0.0012849500
  -0.0005347300   -0.0006573100    0.0002782000
  -0.0000120200    0.0003831100   -0.0001845300
   0.0004621200   -0.0000583700   -0.0000545100
   0.0000690700   -0.0008476600    0.0003073300
  -0.0005347300    0.0006573100    0.0002782000
  -0.0000120200   -0.0003831100   -0.0001845300
   0.0004621200    0.0000583700   -0.0000545100
   0.0000690700    0.0008476600    0.0003073300
  -0.0090318300    0.0000000000    0.0233971000
   0.0025258400    0.0000000000   -0.0055684300
   0.0017602200    0.0000000000    0.0004166900
   0.0039318700    0.0000000000    0.0064740800
  -0.0027636100   -0.0007009100    0.0004349300
   0.0004424000    0.0008763100   -0.0006277300
   0.0010382000   -0.0000881700    0.0003763200
   0.0015030000   -0.0019408900    0.0018465000
  -0.0005084400    0.0000000000    0.0004138700
  -0.0001061600    0.0000000000    0.0002758300
   0.0005362800    0.0000000000    0.0003718600
   0.0000654800    0.0000000000    0.0004753700
  -0.0027636100    0.0007009100    0.0004349300
   0.0004424000   -0.0008763100   -0.0006277300
   0.0010382000    0.0000881700    0.0003763200
   0.0015030000    0.0019408900    0.0018465000
  -0.0162404500    0.0000000000   -0.1118654000
   0.0035846300    0.0000000000    0.0069350500
   0.0012853300    0.0000000000   -0.0002678100
   0.0030473800    0.0000000000   -0.0111367900
  -0.0015918600    0.0002822900   -0.0020891300
   0.0011914500    0.0016733400    0.0000189600
   0.0008715600    0.0000383400    0.0000323900
  -0.0008331900    0.0003478800   -0.0022623300
  -0.0004199000    0.0000000000   -0.0002665900
   0.0000425600    0.0000000000    0.0003089500
   0.0004121100    0.0000000000    0.0000887800
  -0.0000368700    0.0000000000   -0.0002437600
  -0.0015918600   -0.0002822900   -0.0020891300
   0.0011914500   -0.0016733400    0.0000189600
   0.0008715600   -0.0000383400    0.0000323900
  -0.0008331900   -0.0003478800   -0.0022623300
  -0.0008399400    0.0000000000    0.0085699300
   0.0000782000    0.0000000000    0.0025133100
   0.0007511400    0.0000000000    0.0006283000
  -0.0000139400    0.0000000000    0.0016915600
  -0.0005872500    0.0000449700    0.0021012000
   0.0000277800    0.0001756500    0.0011635100
   0.0004928500    0.0000016600    0.0004660200
   0.0000671200   -0.0002155200    0.0009386300
  -0.0004080500    0.0000000000    0.0006293400
   0.0000422200    0.0000000000    0.0004806800
   0.0003250400    0.0000000000    0.0003588300
   0.0000379100    0.0000000000    0.0004519000
  -0.0005872500   -0.0000449700    0.0021012000
   0.0000277800   -0.0001756500    0.0011635100
   0.0004928500   -0.0000016600    0.0004660200
   0.0000671200    0.0002155200    0.0009386300

49   
  0.0077786572244224   0.0000000000000000   0.0062843051950826
   0.0093334900    0.0261375100    0.0121825300
   0.0041476800    0.0009097700    0.0007313500
   0.0019213900   -0.0005650100   -0.0002891300
  -0.0101510400   -0.0065094900   -0.0065460200
  -0.0006174600    0.0021505300    0.0004894200
   0.0009309000    0.0006780700    0.0002722400
   0.0006734500   -0.0004191500   -0.0000053200
  -0.0009534600    0.0000715200   -0.0000494300
  -0.0006174600   -0.0021505300    0.0004894200
   0.0009309000   -0.0006780700    0.0002722400
   0.0006734500    0.0004191500   -0.0000053200
  -0.0009534600   -0.0000715200   -0.0000494300
   0.0093334900   -0.0261375100    0.0121825300
   0.0041476800   -0.0009097700    0.0007313500
   0.0019213900    0.0005650100   -0.0002891300
  -0.0101510400    0.0065094900   -0.0065460200
  -0.0007057300    0.0005741700    0.0028534600
   0.0011359600    0.0003573200    0.0006930800
   0.0008649600   -0.0002758400    0.0008609300
  -0.0012981800    0.0000231600    0.0021753000
  -0.0004505500    0.0004048100    0.0007470000
   0.0005250400    0.0002264600    0.0004038200
   0.0004503300   -0.0001494200    0.0004522800
  -0.0005293700   -0.0001331400    0.0008069000
  -0.0004505500   -0.0004048100    0.0007470000
   0.0005250400   -0.0002264600    0.0004038200
   0.0004503300    0.0001494200    0.0004522800
  -0.0005293700    0.0001331400    0.0008069000
  -0.0007057300   -0.0005741700    0.0028534600
   0.0011359600   -0.0003573200    0.0006930800
   0.0008649600    0.0002758400    0.0008609300
  -0.0012981800   -0.0000231600    0.0021753000
  -0.0068396100   -0.0001248300   -0.0087031300
   0.0014042700    0.0003552500   -0.0010788800
   0.0034320400   -0.0005648000    0.0000729600
   0.0052904200   -0.0119560800    0.0157336700
  -0.0007777400    0.0003020500   -0.0004554000
   0.0005250300    0.0002117000   -0.0002409800
   0.0008010000   -0.0004842600    0.0000818900
  -0.0005633500   -0.0023270300   -0.0005443400
  -0.0007777400   -0.0003020500   -0.0004554000
   0.0005250300   -0.0002117000   -0.0002409800
   0.0008010000    0.0004842600    0.0000818900
  -0.0005633500    0.0023270300   -0.0005443400
  -0.0068396100    0.0001248300   -0.0087031300
   0.0014042700   -0.0003552500   -0.0010788800
   0.0034320400    0.0005648000    0.0000729600
   0.0052904200    0.0119560800    0.0157336700
  -0.0423914300    0.0000000000   -0.0410125100
   0.0110610300    0.0000000000   -0.0039853300
   0.0018296000    0.0000000000   -0.0002168300
   0.0100479300    0.0000000000   -0.0027809900
  -0.0040528300    0.0004419200   -0.0033788000
   0.0011128800    0.0017657100   -0.0006824700
   0.0011139500    0.0000411800   -0.0001074700
   0.0017777100   -0.0024250500   -0.0014911800
  -0.0006965800    0.0000000000   -0.0002171300
   0.0001083700    0.0000000000   -0.0001578200
   0.0005517500    0.0000000000   -0.0000333900
   0.0000300000    0.0000000000   -0.0000590300
  -0.0040528300   -0.0004419200   -0.0033788000
   0.0011128800   -0.0017657100   -0.0006824700
   0.0011139500   -0.0000411800   -0.0001074700
   0.0017777100    0.0024250500   -0.0014911800
  -0.0037982900    0.0000000000    0.0049643100
   0.0025082300    0.0000000000    0.0027875200
   0.0011757300    0.0000000000   -0.0001772400
   0.0003014300    0.0000000000   -0.0010314000
  -0.0014624100    0.0011011800    0.0008732100
   0.0007548600    0.0010533800    0.0005060100
   0.0007592900    0.0000818000   -0.0002329200
  -0.0000471100   -0.0002485400   -0.0003403600
  -0.0005446600    0.0000000000   -0.0001778100
   0.0001345300    0.0000000000   -0.0001383500
   0.0004354000    0.0000000000   -0.0002774200
  -0.0000268200    0.0000000000   -0.0003272900
  -0.0014624100   -0.0011011800    0.0008732100
   0.0007548600   -0.0010533800    0.0005060100
   0.0007592900   -0.0000818000   -0.0002329200
  -0.0000471100    0.0002485400   -0.0003403600
  -0.0037594300    0.0000000000    0.0051943600
  -0.0001430300    0.0000000000   -0.0002334600
   0.0011732000    0.0000000000    0.0000709200
   0.0029209500    0.0000000000    0.0024863000
  -0.0014555500   -0.0015344600    0.0011297000
   0.0000105100    0.0003080200   -0.0001626800
   0.0007579300   -0.0000757000    0.0000178900
   0.0006917000   -0.0009863600    0.0008296400
  -0.0005434500    0.0000000000    0.0000723400
  -0.0000239100    0.0000000000   -0.0000823400
   0.0004358400    0.0000000000   -0.0000253400
   0.0001300400    0.0000000000    0.0001195400
  -0.0014555500    0.0015344600    0.0011297000
   0.0000105100   -0.0003080200   -0.0001626800
   0.0007579300    0.0000757000    0.0000178900
   0.0006917000    0.0009863600    0.0008296400
   0.0106209900    0.0006453700    0.0054259200
  -0.0051976100   -0.0026600700    0.0001201500
  -0.0020826900   -0.0000525700    0.0000498800
  -0.0000757900    0.0009162800    0.0015043400
   0.0010681600   -0.0001106800    0.0001022000
  -0.0004834300   -0.0005272800   -0.0002787400
  -0.0008774500   -0.0000554800   -0.0000797000
   0.0002564300    0.0003606100    0.0004283500
   0.0010681600    0.0001106800    0.0001022000
  -0.0004834300    0.0005272800   -0.0002787400
  -0.0008774500    0.0000554800   -0.0000797000
   0.0002564300   -0.0003606100    0.0004283500
   0.0106209900   -0.0006453700    0.0054259200
  -0.0051976100    0.0026600700    0.0001201500
  -0.0020826900    0.0000525700    0.0000498800
  -0.0000757900   -0.0009162800    0.0015043400
   0.0014765700   -0.0004719900   -0.0013740700
  -0.0003647200   -0.0004683300   -0.0010214300
  -0.0010713100   -0.0000343300   -0.0003037000
  -0.0000580800    0.0002167200   -0.0003660700
   0.0006278000   -0.0001529900   -0.0005780700
  -0.0000533200   -0.0002549400   -0.0005001300
  -0.0005517200   -0.0000238500   -0.0002497400
  -0.0000257500    0.0000904300   -0.0002339400
   0.0006278000    0.0001529900   -0.0005780700
  -0.0000533200    0.0002549400   -0.0005001300
  -0.0005517200    0.0000238500   -0.0002497400
  -0.0000257500   -0.0000904300   -0.0002339400
   0.0014765700    0.0004719900   -0.0013740700
  -0.0003647200    0.0004683300   -0.0010214300
  -0.0010713100    0.0000343300   -0.0003037000
  -0.0000580800   -0.0002167200   -0.0003660700
   0.0069829200    0.0027354500   -0.0026845800
  -0.0002161400   -0.0001389400    0.0003941000
  -0.0018585600    0.0000480400   -0.0002242800
  -0.0044483200    0.0009384400   -0.0013062200
   0.0011323400    0.0002427300    0.0000512100
   0.0000515800   -0.0000899700   -0.0001322500
  -0.0007697400    0.0000519300   -0.0001680500
  -0.0004156300    0.0004267000   -0.0001360600
   0.0011323400   -0.0002427300    0.0000512100
   0.0000515800    0.0000899700   -0.0001322500
  -0.0007697400   -0.0000519300   -0.0001680500
  -0.0004156300   -0.0004267000   -0.0001360600