mesh: [    20,    20,    20 ]
nqpoint: 550    
reciprocal_lattice:
- [   0.25793652,   0.00000000,   0.00000000 ] # a*
- [   0.00000000,   0.25793652,   0.00000000 ] # b*
- [   0.00000000,   0.00000000,   0.23945365 ] # c*
natom:   5      
lattice:
- [     3.876922893410728,     0.000000000000000,     0.000000000000000 ] # a
- [     0.000000000000000,     3.876922893410728,     0.000000000000000 ] # b
- [     0.000000000000000,     0.000000000000000,     4.176173509484664 ] # c
points:
- symbol: Ti # 1
  coordinates: [  0.500000000000000,  0.500000000000000,  0.577729231226102 ]
  mass: 47.867000
- symbol: Pb # 2
  coordinates: [  0.000000000000000,  0.000000000000000,  0.115069325169687 ]
  mass: 207.200000
- symbol: O # 3
  coordinates: [  0.000000000000000,  0.500000000000000,  0.497065529386724 ]
  mass: 15.999400
- symbol: O # 4
  coordinates: [  0.500000000000000,  0.000000000000000,  0.497065529386724 ]
  mass: 15.999400
- symbol: O # 5
  coordinates: [  0.500000000000000,  0.500000000000000,  0.003270394830760 ]
  mass: 15.999400

phonon:
- q-position: [    0.0250000,    0.0250000,    0.0250000 ]
  distance_from_gamma:  0.010908728
  weight: 8    
  band:
  - # 1
    frequency:     0.2991188861
  - # 2
    frequency:     0.3149989221
  - # 3
    frequency:     0.5806718919
  - # 4
    frequency:     2.7542388848
  - # 5
    frequency:     2.9315022342
  - # 6
    frequency:     4.4775107727
  - # 7
    frequency:     6.1228285861
  - # 8
    frequency:     6.4126217984
  - # 9
    frequency:     8.1765225242
  - # 10
    frequency:     8.1956476020
  - # 11
    frequency:     8.2568335838
  - # 12
    frequency:    10.5812727937
  - # 13
    frequency:    14.8634570358
  - # 14
    frequency:    14.9669331797
  - # 15
    frequency:    19.4817127267

- q-position: [    0.0750000,    0.0250000,    0.0250000 ]
  distance_from_gamma:  0.021252214
  weight: 16   
  band:
  - # 1
    frequency:     0.6271931909
  - # 2
    frequency:     0.6482279164
  - # 3
    frequency:     1.1123905932
  - # 4
    frequency:     2.9380383856
  - # 5
    frequency:     3.6280860810
  - # 6
    frequency:     4.5551568448
  - # 7
    frequency:     6.2455886252
  - # 8
    frequency:     7.9778296958
  - # 9
    frequency:     8.2203260382
  - # 10
    frequency:     8.2455202731
  - # 11
    frequency:     8.4846484556
  - # 12
    frequency:    10.5687963630
  - # 13
    frequency:    14.8359727970
  - # 14
    frequency:    15.4496417051
  - # 15
    frequency:    19.4763600209

- q-position: [    0.1250000,    0.0250000,    0.0250000 ]
  distance_from_gamma:  0.033421087
  weight: 16   
  band:
  - # 1
    frequency:     0.9395953536
  - # 2
    frequency:     0.9986404285
  - # 3
    frequency:     1.5948917538
  - # 4
    frequency:     3.2001934432
  - # 5
    frequency:     4.1019481944
  - # 6
    frequency:     4.9124491511
  - # 7
    frequency:     6.3803859129
  - # 8
    frequency:     8.1581584890
  - # 9
    frequency:     8.3016608851
  - # 10
    frequency:     8.3370019877
  - # 11
    frequency:    10.3649031070
  - # 12
    frequency:    10.7431221304
  - # 13
    frequency:    14.7653284702
  - # 14
    frequency:    16.4567380160
  - # 15
    frequency:    19.4910185861

- q-position: [    0.1750000,    0.0250000,    0.0250000 ]
  distance_from_gamma:  0.045988453
  weight: 16   
  band:
  - # 1
    frequency:     1.1608504353
  - # 2
    frequency:     1.3166079875
  - # 3
    frequency:     1.9968213301
  - # 4
    frequency:     3.5021793016
  - # 5
    frequency:     4.2890035423
  - # 6
    frequency:     5.5326788980
  - # 7
    frequency:     6.5773510764
  - # 8
    frequency:     8.1827627758
  - # 9
    frequency:     8.3752780056
  - # 10
    frequency:     8.4726851989
  - # 11
    frequency:    10.4497174864
  - # 12
    frequency:    12.2498558253
  - # 13
    frequency:    14.6612307293
  - # 14
    frequency:    17.7946453122
  - # 15
    frequency:    19.6422763087

- q-position: [    0.2250000,    0.0250000,    0.0250000 ]
  distance_from_gamma:  0.058698916
  weight: 16   
  band:
  - # 1
    frequency:     1.3173160313
  - # 2
    frequency:     1.5778407251
  - # 3
    frequency:     2.3249948721
  - # 4
    frequency:     3.7733106172
  - # 5
    frequency:     4.4354843489
  - # 6
    frequency:     6.1541064423
  - # 7
    frequency:     6.8237041076
  - # 8
    frequency:     8.1970062617
  - # 9
    frequency:     8.4809566350
  - # 10
    frequency:     8.6518283749
  - # 11
    frequency:    10.3947346726
  - # 12
    frequency:    13.1482975168
  - # 13
    frequency:    14.5289954274
  - # 14
    frequency:    18.6322157944
  - # 15
    frequency:    20.3248846213

- q-position: [    0.2750000,    0.0250000,    0.0250000 ]
  distance_from_gamma:  0.071476178
  weight: 16   
  band:
  - # 1
    frequency:     1.4345199791
  - # 2
    frequency:     1.7732779322
  - # 3
    frequency:     2.5812402646
  - # 4
    frequency:     3.9785122085
  - # 5
    frequency:     4.6111505124
  - # 6
    frequency:     6.6895383808
  - # 7
    frequency:     7.0867661483
  - # 8
    frequency:     8.2090199340
  - # 9
    frequency:     8.6180988792
  - # 10
    frequency:     8.8756552662
  - # 11
    frequency:    10.3213161300
  - # 12
    frequency:    13.5842626828
  - # 13
    frequency:    14.3767949972
  - # 14
    frequency:    18.7888816750
  - # 15
    frequency:    21.2464150154

- q-position: [    0.3250000,    0.0250000,    0.0250000 ]
  distance_from_gamma:  0.084289866
  weight: 16   
  band:
  - # 1
    frequency:     1.5261425063
  - # 2
    frequency:     1.9065701759
  - # 3
    frequency:     2.7722198292
  - # 4
    frequency:     4.1164924292
  - # 5
    frequency:     4.8155242344
  - # 6
    frequency:     7.1016934733
  - # 7
    frequency:     7.3247547548
  - # 8
    frequency:     8.2463845818
  - # 9
    frequency:     8.7733443360
  - # 10
    frequency:     9.1338940707
  - # 11
    frequency:    10.2345782344
  - # 12
    frequency:    13.8039501099
  - # 13
    frequency:    14.2181086465
  - # 14
    frequency:    18.7635686362
  - # 15
    frequency:    21.7084763816

- q-position: [    0.3750000,    0.0250000,    0.0250000 ]
  distance_from_gamma:  0.097125564
  weight: 16   
  band:
  - # 1
    frequency:     1.5966706364
  - # 2
    frequency:     1.9897505634
  - # 3
    frequency:     2.9132604989
  - # 4
    frequency:     4.2009162825
  - # 5
    frequency:     5.0229004541
  - # 6
    frequency:     7.3687367825
  - # 7
    frequency:     7.4900335204
  - # 8
    frequency:     8.3407012560
  - # 9
    frequency:     8.9287098091
  - # 10
    frequency:     9.3958843216
  - # 11
    frequency:    10.1420338662
  - # 12
    frequency:    13.9758774279
  - # 13
    frequency:    14.1062085466
  - # 14
    frequency:    18.6817655391
  - # 15
    frequency:    21.6281874957

- q-position: [    0.4250000,    0.0250000,    0.0250000 ]
  distance_from_gamma:  0.109975566
  weight: 16   
  band:
  - # 1
    frequency:     1.6456272265
  - # 2
    frequency:     2.0363122873
  - # 3
    frequency:     3.0160343096
  - # 4
    frequency:     4.2475093508
  - # 5
    frequency:     5.1957462960
  - # 6
    frequency:     7.5043153138
  - # 7
    frequency:     7.5754594872
  - # 8
    frequency:     8.4598172979
  - # 9
    frequency:     9.0614896894
  - # 10
    frequency:     9.6152877098
  - # 11
    frequency:    10.0570576337
  - # 12
    frequency:    13.9151814746
  - # 13
    frequency:    14.3574232165
  - # 14
    frequency:    18.5630286212
  - # 15
    frequency:    21.2185980404

- q-position: [    0.4750000,    0.0250000,    0.0250000 ]
  distance_from_gamma:  0.122835383
  weight: 16   
  band:
  - # 1
    frequency:     1.6708952372
  - # 2
    frequency:     2.0567531934
  - # 3
    frequency:     3.0745236164
  - # 4
    frequency:     4.2679360073
  - # 5
    frequency:     5.2952556429
  - # 6
    frequency:     7.5354197373
  - # 7
    frequency:     7.6300817466
  - # 8
    frequency:     8.5323492239
  - # 9
    frequency:     9.1415667269
  - # 10
    frequency:     9.7451005524
  - # 11
    frequency:     9.9994046981
  - # 12
    frequency:    13.8473240885
  - # 13
    frequency:    14.6558927154
  - # 14
    frequency:    18.4437817152
  - # 15
    frequency:    20.8529684371

- q-position: [    0.0750000,    0.0750000,    0.0250000 ]
  distance_from_gamma:  0.028005586
  weight: 8    
  band:
  - # 1
    frequency:     0.7155968409
  - # 2
    frequency:     0.8478098299
  - # 3
    frequency:     1.4555027259
  - # 4
    frequency:     3.4145102468
  - # 5
    frequency:     3.7061564472
  - # 6
    frequency:     4.6607562669
  - # 7
    frequency:     6.9786938391
  - # 8
    frequency:     8.1959652050
  - # 9
    frequency:     8.3104607847
  - # 10
    frequency:     8.3401641729
  - # 11
    frequency:     9.0337673672
  - # 12
    frequency:    10.5625443052
  - # 13
    frequency:    14.8812532298
  - # 14
    frequency:    15.8307970168
  - # 15
    frequency:    19.4758220067

- q-position: [    0.1250000,    0.0750000,    0.0250000 ]
  distance_from_gamma:  0.038073945
  weight: 16   
  band:
  - # 1
    frequency:     0.9629797582
  - # 2
    frequency:     1.1251736913
  - # 3
    frequency:     1.7914389706
  - # 4
    frequency:     3.6306640923
  - # 5
    frequency:     4.0595296990
  - # 6
    frequency:     4.9815225315
  - # 7
    frequency:     7.2228116905
  - # 8
    frequency:     8.2074529035
  - # 9
    frequency:     8.3453640036
  - # 10
    frequency:     8.4355762867
  - # 11
    frequency:    10.3976705945
  - # 12
    frequency:    10.9090685288
  - # 13
    frequency:    14.8343661193
  - # 14
    frequency:    16.7368165963
  - # 15
    frequency:    19.5037531548

- q-position: [    0.1750000,    0.0750000,    0.0250000 ]
  distance_from_gamma:  0.049473165
  weight: 16   
  band:
  - # 1
    frequency:     1.2072799927
  - # 2
    frequency:     1.3955976305
  - # 3
    frequency:     2.0663240215
  - # 4
    frequency:     3.8203352874
  - # 5
    frequency:     4.3099653745
  - # 6
    frequency:     5.5093850926
  - # 7
    frequency:     7.2758431750
  - # 8
    frequency:     8.1990959133
  - # 9
    frequency:     8.3834847451
  - # 10
    frequency:     8.5989982282
  - # 11
    frequency:    10.4310770751
  - # 12
    frequency:    12.2794102171
  - # 13
    frequency:    14.7214511666
  - # 14
    frequency:    17.9235078736
  - # 15
    frequency:    19.6896345788

- q-position: [    0.2250000,    0.0750000,    0.0250000 ]
  distance_from_gamma:  0.061467219
  weight: 16   
  band:
  - # 1
    frequency:     1.3792508133
  - # 2
    frequency:     1.6242506835
  - # 3
    frequency:     2.2986054213
  - # 4
    frequency:     4.0457313263
  - # 5
    frequency:     4.5026081296
  - # 6
    frequency:     6.0447872492
  - # 7
    frequency:     7.3046982211
  - # 8
    frequency:     8.2034899040
  - # 9
    frequency:     8.4643404992
  - # 10
    frequency:     8.8077140607
  - # 11
    frequency:    10.3801857229
  - # 12
    frequency:    13.1267132219
  - # 13
    frequency:    14.5786028799
  - # 14
    frequency:    18.6295064469
  - # 15
    frequency:    20.3801199148

- q-position: [    0.2750000,    0.0750000,    0.0250000 ]
  distance_from_gamma:  0.073766525
  weight: 16   
  band:
  - # 1
    frequency:     1.4837729389
  - # 2
    frequency:     1.7990731436
  - # 3
    frequency:     2.4937383094
  - # 4
    frequency:     4.2679824802
  - # 5
    frequency:     4.7024789738
  - # 6
    frequency:     6.4944079503
  - # 7
    frequency:     7.3715852426
  - # 8
    frequency:     8.2216784218
  - # 9
    frequency:     8.5788657940
  - # 10
    frequency:     9.0606121639
  - # 11
    frequency:    10.3138579803
  - # 12
    frequency:    13.5552165681
  - # 13
    frequency:    14.4298453076
  - # 14
    frequency:    18.7692449623
  - # 15
    frequency:    21.2399766798

- q-position: [    0.3250000,    0.0750000,    0.0250000 ]
  distance_from_gamma:  0.086240580
  weight: 16   
  band:
  - # 1
    frequency:     1.5538262299
  - # 2
    frequency:     1.9208328412
  - # 3
    frequency:     2.6464212160
  - # 4
    frequency:     4.4520527994
  - # 5
    frequency:     4.9106291648
  - # 6
    frequency:     6.8632440430
  - # 7
    frequency:     7.4763460782
  - # 8
    frequency:     8.2453031674
  - # 9
    frequency:     8.7129325962
  - # 10
    frequency:     9.3458806318
  - # 11
    frequency:    10.2396013964
  - # 12
    frequency:    13.7633277148
  - # 13
    frequency:    14.2974619477
  - # 14
    frequency:    18.7478696247
  - # 15
    frequency:    21.6781905156

- q-position: [    0.3750000,    0.0750000,    0.0250000 ]
  distance_from_gamma:  0.098823233
  weight: 16   
  band:
  - # 1
    frequency:     1.6107885463
  - # 2
    frequency:     1.9983323258
  - # 3
    frequency:     2.7601963933
  - # 4
    frequency:     4.5809105966
  - # 5
    frequency:     5.1076519798
  - # 6
    frequency:     7.1833960946
  - # 7
    frequency:     7.5702130474
  - # 8
    frequency:     8.2650245841
  - # 9
    frequency:     8.8460320273
  - # 10
    frequency:     9.6298012875
  - # 11
    frequency:    10.1671937251
  - # 12
    frequency:    13.8921447440
  - # 13
    frequency:    14.2350770395
  - # 14
    frequency:    18.6739217426
  - # 15
    frequency:    21.6226612846

- q-position: [    0.4250000,    0.0750000,    0.0250000 ]
  distance_from_gamma:  0.111477717
  weight: 16   
  band:
  - # 1
    frequency:     1.6563023882
  - # 2
    frequency:     2.0423593083
  - # 3
    frequency:     2.8419695844
  - # 4
    frequency:     4.6570426086
  - # 5
    frequency:     5.2662111160
  - # 6
    frequency:     7.4306835722
  - # 7
    frequency:     7.6562174963
  - # 8
    frequency:     8.2500537531
  - # 9
    frequency:     8.9570485457
  - # 10
    frequency:     9.8530723899
  - # 11
    frequency:    10.1160363347
  - # 12
    frequency:    13.9093348869
  - # 13
    frequency:    14.3871162705
  - # 14
    frequency:    18.5699186577
  - # 15
    frequency:    21.2670504108

- q-position: [    0.4750000,    0.0750000,    0.0250000 ]
  distance_from_gamma:  0.124182074
  weight: 16   
  band:
  - # 1
    frequency:     1.6823844066
  - # 2
    frequency:     2.0618226224
  - # 3
    frequency:     2.8878911339
  - # 4
    frequency:     4.6914668930
  - # 5
    frequency:     5.3559144187
  - # 6
    frequency:     7.5169544279
  - # 7
    frequency:     7.7947741512
  - # 8
    frequency:     8.1894432049
  - # 9
    frequency:     9.0225463263
  - # 10
    frequency:     9.9487568910
  - # 11
    frequency:    10.1152651614
  - # 12
    frequency:    13.8727687063
  - # 13
    frequency:    14.6172729488
  - # 14
    frequency:    18.4720298907
  - # 15
    frequency:    20.9464803099

- q-position: [    0.1250000,    0.1250000,    0.0250000 ]
  distance_from_gamma:  0.045988453
  weight: 8    
  band:
  - # 1
    frequency:     1.0918002533
  - # 2
    frequency:     1.3200774108
  - # 3
    frequency:     2.0039506614
  - # 4
    frequency:     4.0687883572
  - # 5
    frequency:     4.1026867665
  - # 6
    frequency:     5.2390560560
  - # 7
    frequency:     7.6162091248
  - # 8
    frequency:     8.3193024340
  - # 9
    frequency:     8.5211610172
  - # 10
    frequency:     8.6060791868
  - # 11
    frequency:    10.4154933045
  - # 12
    frequency:    11.5459963669
  - # 13
    frequency:    14.8442850535
  - # 14
    frequency:    17.3924715770
  - # 15
    frequency:    19.5703798131

- q-position: [    0.1750000,    0.1250000,    0.0250000 ]
  distance_from_gamma:  0.055793427
  weight: 16   
  band:
  - # 1
    frequency:     1.2875411546
  - # 2
    frequency:     1.5244268008
  - # 3
    frequency:     2.1677808480
  - # 4
    frequency:     4.1782521773
  - # 5
    frequency:     4.3953898865
  - # 6
    frequency:     5.6714344148
  - # 7
    frequency:     7.6174300117
  - # 8
    frequency:     8.3216887695
  - # 9
    frequency:     8.6004807524
  - # 10
    frequency:     8.8170232924
  - # 11
    frequency:    10.3905033457
  - # 12
    frequency:    12.4488907785
  - # 13
    frequency:    14.7505629370
  - # 14
    frequency:    18.2102155578
  - # 15
    frequency:    19.8489861971

- q-position: [    0.2250000,    0.1250000,    0.0250000 ]
  distance_from_gamma:  0.066659819
  weight: 16   
  band:
  - # 1
    frequency:     1.4570928714
  - # 2
    frequency:     1.7028301404
  - # 3
    frequency:     2.2981923722
  - # 4
    frequency:     4.3549198013
  - # 5
    frequency:     4.6031675098
  - # 6
    frequency:     6.1152740678
  - # 7
    frequency:     7.5457024546
  - # 8
    frequency:     8.2635603962
  - # 9
    frequency:     8.6644331800
  - # 10
    frequency:     9.0251693692
  - # 11
    frequency:    10.3461695322
  - # 12
    frequency:    13.1368850560
  - # 13
    frequency:    14.6043780309
  - # 14
    frequency:    18.6494193667
  - # 15
    frequency:    20.5476079844

- q-position: [    0.2750000,    0.1250000,    0.0250000 ]
  distance_from_gamma:  0.078146098
  weight: 16   
  band:
  - # 1
    frequency:     1.5477083830
  - # 2
    frequency:     1.8443450872
  - # 3
    frequency:     2.4184683381
  - # 4
    frequency:     4.5833201031
  - # 5
    frequency:     4.8058976488
  - # 6
    frequency:     6.4495637796
  - # 7
    frequency:     7.5008853223
  - # 8
    frequency:     8.2318576061
  - # 9
    frequency:     8.7368847779
  - # 10
    frequency:     9.2816022551
  - # 11
    frequency:    10.2970291604
  - # 12
    frequency:    13.5362717653
  - # 13
    frequency:    14.4581254509
  - # 14
    frequency:    18.7451356417
  - # 15
    frequency:    21.2878085016

- q-position: [    0.3250000,    0.1250000,    0.0250000 ]
  distance_from_gamma:  0.090015277
  weight: 16   
  band:
  - # 1
    frequency:     1.5870066250
  - # 2
    frequency:     1.9470293915
  - # 3
    frequency:     2.5254528093
  - # 4
    frequency:     4.8097057370
  - # 5
    frequency:     5.0386653436
  - # 6
    frequency:     6.6864103542
  - # 7
    frequency:     7.5283801466
  - # 8
    frequency:     8.2455096729
  - # 9
    frequency:     8.8085467057
  - # 10
    frequency:     9.5621966217
  - # 11
    frequency:    10.2610748892
  - # 12
    frequency:    13.7435621690
  - # 13
    frequency:    14.3453483300
  - # 14
    frequency:    18.7271133972
  - # 15
    frequency:    21.6722235299

- q-position: [    0.3750000,    0.1250000,    0.0250000 ]
  distance_from_gamma:  0.102133951
  weight: 16   
  band:
  - # 1
    frequency:     1.6250806381
  - # 2
    frequency:     2.0143426810
  - # 3
    frequency:     2.6078832191
  - # 4
    frequency:     4.9891466338
  - # 5
    frequency:     5.2721218020
  - # 6
    frequency:     6.9269622576
  - # 7
    frequency:     7.5815163267
  - # 8
    frequency:     8.2708266762
  - # 9
    frequency:     8.8696790022
  - # 10
    frequency:     9.7905853446
  - # 11
    frequency:    10.2817040850
  - # 12
    frequency:    13.8641629236
  - # 13
    frequency:    14.3006806801
  - # 14
    frequency:    18.6674558335
  - # 15
    frequency:    21.6504149580

- q-position: [    0.4250000,    0.1250000,    0.0250000 ]
  distance_from_gamma:  0.114422873
  weight: 16   
  band:
  - # 1
    frequency:     1.6710862111
  - # 2
    frequency:     2.0535245693
  - # 3
    frequency:     2.6644434540
  - # 4
    frequency:     5.1097235860
  - # 5
    frequency:     5.4487365929
  - # 6
    frequency:     7.1933271061
  - # 7
    frequency:     7.6302161949
  - # 8
    frequency:     8.2613440707
  - # 9
    frequency:     8.9115829613
  - # 10
    frequency:     9.8818086440
  - # 11
    frequency:    10.3947929711
  - # 12
    frequency:    13.9105909595
  - # 13
    frequency:    14.3904341847
  - # 14
    frequency:    18.5891234269
  - # 15
    frequency:    21.3807332755

- q-position: [    0.4750000,    0.1250000,    0.0250000 ]
  distance_from_gamma:  0.126832567
  weight: 16   
  band:
  - # 1
    frequency:     1.7035520263
  - # 2
    frequency:     2.0711718154
  - # 3
    frequency:     2.6945391433
  - # 4
    frequency:     5.1690412946
  - # 5
    frequency:     5.5417411006
  - # 6
    frequency:     7.3671759447
  - # 7
    frequency:     7.7010634534
  - # 8
    frequency:     8.2059158151
  - # 9
    frequency:     8.9320828972
  - # 10
    frequency:     9.8922154099
  - # 11
    frequency:    10.4986935346
  - # 12
    frequency:    13.9013830758
  - # 13
    frequency:    14.5386277590
  - # 14
    frequency:    18.5230265419
  - # 15
    frequency:    21.1330943734

- q-position: [    0.1750000,    0.1750000,    0.0250000 ]
  distance_from_gamma:  0.064116108
  weight: 8    
  band:
  - # 1
    frequency:     1.4130108848
  - # 2
    frequency:     1.6654142157
  - # 3
    frequency:     2.2548741518
  - # 4
    frequency:     4.4134886612
  - # 5
    frequency:     4.5142723279
  - # 6
    frequency:     6.0072028593
  - # 7
    frequency:     7.5729530931
  - # 8
    frequency:     8.3454817482
  - # 9
    frequency:     8.7959265926
  - # 10
    frequency:     9.1388272001
  - # 11
    frequency:    10.3337606166
  - # 12
    frequency:    12.8190664944
  - # 13
    frequency:    14.6817995936
  - # 14
    frequency:    18.5265066508
  - # 15
    frequency:    20.2500115002

- q-position: [    0.2250000,    0.1750000,    0.0250000 ]
  distance_from_gamma:  0.073766525
  weight: 16   
  band:
  - # 1
    frequency:     1.5380695572
  - # 2
    frequency:     1.7920718250
  - # 3
    frequency:     2.3210328218
  - # 4
    frequency:     4.5773584062
  - # 5
    frequency:     4.6410228655
  - # 6
    frequency:     6.3696667662
  - # 7
    frequency:     7.4794403428
  - # 8
    frequency:     8.3139802325
  - # 9
    frequency:     8.9451884546
  - # 10
    frequency:     9.3151157138
  - # 11
    frequency:    10.2840077675
  - # 12
    frequency:    13.2381204340
  - # 13
    frequency:    14.5449221489
  - # 14
    frequency:    18.6923063360
  - # 15
    frequency:    20.8738206256

- q-position: [    0.2750000,    0.1750000,    0.0250000 ]
  distance_from_gamma:  0.084289866
  weight: 16   
  band:
  - # 1
    frequency:     1.5961328673
  - # 2
    frequency:     1.8970108188
  - # 3
    frequency:     2.3823401987
  - # 4
    frequency:     4.6952593169
  - # 5
    frequency:     4.8648321651
  - # 6
    frequency:     6.6148035893
  - # 7
    frequency:     7.4321682246
  - # 8
    frequency:     8.2799590272
  - # 9
    frequency:     9.0414272636
  - # 10
    frequency:     9.5025845250
  - # 11
    frequency:    10.2637446558
  - # 12
    frequency:    13.5563513831
  - # 13
    frequency:    14.4032079983
  - # 14
    frequency:    18.7328457714
  - # 15
    frequency:    21.4434869430

- q-position: [    0.3250000,    0.1750000,    0.0250000 ]
  distance_from_gamma:  0.095397688
  weight: 16   
  band:
  - # 1
    frequency:     1.5977161824
  - # 2
    frequency:     1.9777543841
  - # 3
    frequency:     2.4441057380
  - # 4
    frequency:     4.9077929802
  - # 5
    frequency:     5.1172064165
  - # 6
    frequency:     6.7159697792
  - # 7
    frequency:     7.4594669601
  - # 8
    frequency:     8.2984407218
  - # 9
    frequency:     9.0819243857
  - # 10
    frequency:     9.7026876676
  - # 11
    frequency:    10.3201741224
  - # 12
    frequency:    13.7552216937
  - # 13
    frequency:    14.2997254061
  - # 14
    frequency:    18.7155575499
  - # 15
    frequency:    21.7458116081

- q-position: [    0.3750000,    0.1750000,    0.0250000 ]
  distance_from_gamma:  0.106907963
  weight: 16   
  band:
  - # 1
    frequency:     1.6206775379
  - # 2
    frequency:     2.0330195594
  - # 3
    frequency:     2.4910078933
  - # 4
    frequency:     5.1688325020
  - # 5
    frequency:     5.4059526887
  - # 6
    frequency:     6.7583069857
  - # 7
    frequency:     7.5066972060
  - # 8
    frequency:     8.3796769702
  - # 9
    frequency:     9.0786033010
  - # 10
    frequency:     9.8000623515
  - # 11
    frequency:    10.5029011841
  - # 12
    frequency:    13.8720106499
  - # 13
    frequency:    14.2630429973
  - # 14
    frequency:    18.6734063342
  - # 15
    frequency:    21.7491700574

- q-position: [    0.4250000,    0.1750000,    0.0250000 ]
  distance_from_gamma:  0.118703675
  weight: 16   
  band:
  - # 1
    frequency:     1.6811369572
  - # 2
    frequency:     2.0669783262
  - # 3
    frequency:     2.5161613530
  - # 4
    frequency:     5.3586457917
  - # 5
    frequency:     5.7102118376
  - # 6
    frequency:     6.8022642107
  - # 7
    frequency:     7.5356139806
  - # 8
    frequency:     8.5107892035
  - # 9
    frequency:     9.0156136249
  - # 10
    frequency:     9.8159704936
  - # 11
    frequency:    10.7238298534
  - # 12
    frequency:    13.9123233064
  - # 13
    frequency:    14.3259248456
  - # 14
    frequency:    18.6236901577
  - # 15
    frequency:    21.5681785780

- q-position: [    0.4750000,    0.1750000,    0.0250000 ]
  distance_from_gamma:  0.130707569
  weight: 16   
  band:
  - # 1
    frequency:     1.7313372373
  - # 2
    frequency:     2.0834520213
  - # 3
    frequency:     2.5251844911
  - # 4
    frequency:     5.4525376778
  - # 5
    frequency:     5.9026249095
  - # 6
    frequency:     6.8404996162
  - # 7
    frequency:     7.5482996572
  - # 8
    frequency:     8.6679299897
  - # 9
    frequency:     8.8932993170
  - # 10
    frequency:     9.8135207942
  - # 11
    frequency:    10.8632236163
  - # 12
    frequency:    13.9050839575
  - # 13
    frequency:    14.4225976416
  - # 14
    frequency:    18.5866226763
  - # 15
    frequency:    21.3978779322

- q-position: [    0.2250000,    0.2250000,    0.0250000 ]
  distance_from_gamma:  0.082292923
  weight: 8    
  band:
  - # 1
    frequency:     1.6010004353
  - # 2
    frequency:     1.8750290307
  - # 3
    frequency:     2.3479309915
  - # 4
    frequency:     4.4797618343
  - # 5
    frequency:     4.8753507424
  - # 6
    frequency:     6.6668042127
  - # 7
    frequency:     7.3533358649
  - # 8
    frequency:     8.3311128687
  - # 9
    frequency:     9.1918526878
  - # 10
    frequency:     9.5550092730
  - # 11
    frequency:    10.2092996618
  - # 12
    frequency:    13.4215805020
  - # 13
    frequency:    14.4181793154
  - # 14
    frequency:    18.7252225947
  - # 15
    frequency:    21.3021837435

- q-position: [    0.2750000,    0.2250000,    0.0250000 ]
  distance_from_gamma:  0.091844469
  weight: 16   
  band:
  - # 1
    frequency:     1.5984729810
  - # 2
    frequency:     1.9470986486
  - # 3
    frequency:     2.3728190831
  - # 4
    frequency:     4.4023163577
  - # 5
    frequency:     5.1383605553
  - # 6
    frequency:     6.8517327453
  - # 7
    frequency:     7.2794470778
  - # 8
    frequency:     8.3413575431
  - # 9
    frequency:     9.3951343312
  - # 10
    frequency:     9.7164214799
  - # 11
    frequency:    10.2109581549
  - # 12
    frequency:    13.6184898766
  - # 13
    frequency:    14.2825812855
  - # 14
    frequency:    18.7318567929
  - # 15
    frequency:    21.6845988911

- q-position: [    0.3250000,    0.2250000,    0.0250000 ]
  distance_from_gamma:  0.102133951
  weight: 16   
  band:
  - # 1
    frequency:     1.5525185520
  - # 2
    frequency:     2.0065523113
  - # 3
    frequency:     2.3963096379
  - # 4
    frequency:     4.5337468615
  - # 5
    frequency:     5.3983064180
  - # 6
    frequency:     6.8551272912
  - # 7
    frequency:     7.3097480858
  - # 8
    frequency:     8.3846567127
  - # 9
    frequency:     9.5093176213
  - # 10
    frequency:     9.7547099630
  - # 11
    frequency:    10.4218199612
  - # 12
    frequency:    13.7804769603
  - # 13
    frequency:    14.1794039907
  - # 14
    frequency:    18.7180888749
  - # 15
    frequency:    21.8973514265

- q-position: [    0.3750000,    0.2250000,    0.0250000 ]
  distance_from_gamma:  0.112959894
  weight: 16   
  band:
  - # 1
    frequency:     1.5760047684
  - # 2
    frequency:     2.0500328198
  - # 3
    frequency:     2.4059846027
  - # 4
    frequency:     4.8939556237
  - # 5
    frequency:     5.6344735046
  - # 6
    frequency:     6.7566565936
  - # 7
    frequency:     7.3644233879
  - # 8
    frequency:     8.4825509995
  - # 9
    frequency:     9.5169648095
  - # 10
    frequency:     9.7475833247
  - # 11
    frequency:    10.7442025403
  - # 12
    frequency:    13.8836869631
  - # 13
    frequency:    14.1402827432
  - # 14
    frequency:    18.6941691141
  - # 15
    frequency:    21.9139414452

- q-position: [    0.4250000,    0.2250000,    0.0250000 ]
  distance_from_gamma:  0.124182074
  weight: 16   
  band:
  - # 1
    frequency:     1.6764889053
  - # 2
    frequency:     2.0796005605
  - # 3
    frequency:     2.3934580069
  - # 4
    frequency:     5.3452672080
  - # 5
    frequency:     5.8383285345
  - # 6
    frequency:     6.5992034005
  - # 7
    frequency:     7.3950169942
  - # 8
    frequency:     8.6289749350
  - # 9
    frequency:     9.4162112790
  - # 10
    frequency:     9.7769198640
  - # 11
    frequency:    11.0281804917
  - # 12
    frequency:    13.8931438149
  - # 13
    frequency:    14.2018799658
  - # 14
    frequency:    18.6691568675
  - # 15
    frequency:    21.8061628809

- q-position: [    0.4750000,    0.2250000,    0.0250000 ]
  distance_from_gamma:  0.135702224
  weight: 16   
  band:
  - # 1
    frequency:     1.7615323397
  - # 2
    frequency:     2.0973302665
  - # 3
    frequency:     2.3725133853
  - # 4
    frequency:     5.6545500562
  - # 5
    frequency:     6.0649754216
  - # 6
    frequency:     6.3729068742
  - # 7
    frequency:     7.4060003772
  - # 8
    frequency:     8.7728783348
  - # 9
    frequency:     9.2929567526
  - # 10
    frequency:     9.8023526018
  - # 11
    frequency:    11.1916324546
  - # 12
    frequency:    13.8675558459
  - # 13