nqpoint: 306    
npath: 6      
segment_nqpoint:
- 51
- 51
- 51
- 51
- 51
- 51
labels:
- [ '$\Gamma$', '$\mathrm{X}$' ]
- [ '$\mathrm{X}$', '$\mathrm{M}$' ]
- [ '$\mathrm{M}$', '$\Gamma$' ]
- [ '$\Gamma$', '$\mathrm{R}$' ]
- [ '$\mathrm{R}$', '$\mathrm{X}$' ]
- [ '$\mathrm{R}$', '$\mathrm{M}$' ]
reciprocal_lattice:
- [   0.23547700,   0.00000000,   0.00000000 ] # a*
- [   0.00000000,   0.23547700,   0.00000000 ] # b*
- [   0.00000000,   0.00000000,   0.23547700 ] # c*
natom: 6      
lattice:
- [     4.246699319999999,     0.000000000000000,     0.000000000000000 ] # a
- [     0.000000000000000,     4.246699319999999,     0.000000000000000 ] # b
- [     0.000000000000000,     0.000000000000000,     4.246699319999999 ] # c
points:
- symbol: Cu # 1
  coordinates: [  0.250000000000000,  0.250000000000000,  0.750000000000000 ]
  mass: 63.546000
- symbol: Cu # 2
  coordinates: [  0.750000000000000,  0.250000000000000,  0.250000000000000 ]
  mass: 63.546000
- symbol: Cu # 3
  coordinates: [  0.250000000000000,  0.750000000000000,  0.250000000000000 ]
  mass: 63.546000
- symbol: Cu # 4
  coordinates: [  0.750000000000000,  0.750000000000000,  0.750000000000000 ]
  mass: 63.546000
- symbol: O # 5
  coordinates: [  0.500000000000000,  0.500000000000000,  0.500000000000000 ]
  mass: 15.999400
- symbol: O # 6
  coordinates: [  0.000000000000000,  0.000000000000000,  0.000000000000000 ]
  mass: 15.999400

phonon:
- q-position: [    0.0000000,    0.0000000,    0.0000000 ]
  distance:    0.0000000
  band:
  - # 1
    frequency:   -0.0152112230
  - # 2
    frequency:   -0.0152112230
  - # 3
    frequency:   -0.0146537171
  - # 4
    frequency:    1.9764737613
  - # 5
    frequency:    1.9764737613
  - # 6
    frequency:    1.9764737613
  - # 7
    frequency:    2.4484263713
  - # 8
    frequency:    2.4484263713
  - # 9
    frequency:    4.3452188762
  - # 10
    frequency:    4.3452188762
  - # 11
    frequency:    4.4165485563
  - # 12
    frequency:   10.8340549362
  - # 13
    frequency:   16.0315484558
  - # 14
    frequency:   16.0315484558
  - # 15
    frequency:   16.0315484558
  - # 16
    frequency:   19.6312464364
  - # 17
    frequency:   19.6312464364
  - # 18
    frequency:   20.2446807273

- q-position: [    0.0000000,    0.0100000,    0.0000000 ]
  distance:    0.0023548
  band:
  - # 1
    frequency:    0.0086933334
  - # 2
    frequency:    0.0086933334
  - # 3
    frequency:    0.1104419132
  - # 4
    frequency:    1.9765133132
  - # 5
    frequency:    1.9766608399
  - # 6
    frequency:    1.9766608399
  - # 7
    frequency:    2.4482429897
  - # 8
    frequency:    2.4487445506
  - # 9
    frequency:    4.3441534254
  - # 10
    frequency:    4.3441534254
  - # 11
    frequency:    4.4172891665
  - # 12
    frequency:   10.8319101993
  - # 13
    frequency:   16.0322663079
  - # 14
    frequency:   16.0322663079
  - # 15
    frequency:   16.0331849776
  - # 16
    frequency:   19.6308290460
  - # 17
    frequency:   19.6308290460
  - # 18
    frequency:   20.2437227682

- q-position: [    0.0000000,    0.0200000,    0.0000000 ]
  distance:    0.0047095
  band:
  - # 1
    frequency:    0.0315881070
  - # 2
    frequency:    0.0315881070
  - # 3
    frequency:    0.2221874164
  - # 4
    frequency:    1.9766321764
  - # 5
    frequency:    1.9772219204
  - # 6
    frequency:    1.9772219204
  - # 7
    frequency:    2.4476931898
  - # 8
    frequency:    2.4496981175
  - # 9
    frequency:    4.3409594567
  - # 10
    frequency:    4.3409594567
  - # 11
    frequency:    4.4195165933
  - # 12
    frequency:   10.8254846017
  - # 13
    frequency:   16.0344178957
  - # 14
    frequency:   16.0344178957
  - # 15
    frequency:   16.0380860005
  - # 16
    frequency:   19.6295775290
  - # 17
    frequency:   19.6295775290
  - # 18
    frequency:   20.2408501644

- q-position: [    0.0000000,    0.0300000,    0.0000000 ]
  distance:    0.0070643
  band:
  - # 1
    frequency:    0.0503925808
  - # 2
    frequency:    0.0503925808
  - # 3
    frequency:    0.3333084265
  - # 4
    frequency:    1.9768309721
  - # 5
    frequency:    1.9781565420
  - # 6
    frequency:    1.9781565420
  - # 7
    frequency:    2.4467780051
  - # 8
    frequency:    2.4512841639
  - # 9
    frequency:    4.3356441148
  - # 10
    frequency:    4.3356441148
  - # 11
    frequency:    4.4232476466
  - # 12
    frequency:   10.8148037952
  - # 13
    frequency:   16.0379973166
  - # 14
    frequency:   16.0379973166
  - # 15
    frequency:   16.0462260849
  - # 16
    frequency:   19.6274938521
  - # 17
    frequency:   19.6274938521
  - # 18
    frequency:   20.2360667316

- q-position: [    0.0000000,    0.0400000,    0.0000000 ]
  distance:    0.0094191
  band:
  - # 1
    frequency:    0.0686086840
  - # 2
    frequency:    0.0686086840
  - # 3
    frequency:    0.4438964295
  - # 4
    frequency:    1.9771107313
  - # 5
    frequency:    1.9794639541
  - # 6
    frequency:    1.9794639541
  - # 7
    frequency:    2.4454991554
  - # 8
    frequency:    2.4534978594
  - # 9
    frequency:    4.3282192893
  - # 10
    frequency:    4.3282192893
  - # 11
    frequency:    4.4285104087
  - # 12
    frequency:   10.7999099182
  - # 13
    frequency:   16.0429947453
  - # 14
    frequency:   16.0429947453
  - # 15
    frequency:   16.0575634505
  - # 16
    frequency:   19.6245813067
  - # 17
    frequency:   19.6245813067
  - # 18
    frequency:   20.2293788146

- q-position: [    0.0000000,    0.0500000,    0.0000000 ]
  distance:    0.0117738
  band:
  - # 1
    frequency:    0.0866625221
  - # 2
    frequency:    0.0866625221
  - # 3
    frequency:    0.5538445469
  - # 4
    frequency:    1.9774728895
  - # 5
    frequency:    1.9811431420
  - # 6
    frequency:    1.9811431420
  - # 7
    frequency:    2.4438590438
  - # 8
    frequency:    2.4563324748
  - # 9
    frequency:    4.3187015879
  - # 10
    frequency:    4.3187015879
  - # 11
    frequency:    4.4353443221
  - # 12
    frequency:   10.7808607070
  - # 13
    frequency:   16.0493964500
  - # 14
    frequency:   16.0493964500
  - # 15
    frequency:   16.0720408710
  - # 16
    frequency:   19.6208445287
  - # 17
    frequency:   19.6208445287
  - # 18
    frequency:   20.2207952640

- q-position: [    0.0000000,    0.0600000,    0.0000000 ]
  distance:    0.0141286
  band:
  - # 1
    frequency:    0.1046947649
  - # 2
    frequency:    0.1046947649
  - # 3
    frequency:    0.6630098731
  - # 4
    frequency:    1.9779192776
  - # 5
    frequency:    1.9831928636
  - # 6
    frequency:    1.9831928636
  - # 7
    frequency:    2.4418607508
  - # 8
    frequency:    2.4597794160
  - # 9
    frequency:    4.3071122987
  - # 10
    frequency:    4.3071122987
  - # 11
    frequency:    4.4438002911
  - # 12
    frequency:   10.7577283125
  - # 13
    frequency:   16.0571848169
  - # 14
    frequency:   16.0571848169
  - # 15
    frequency:   16.0895868659
  - # 16
    frequency:   19.6162895270
  - # 17
    frequency:   19.6162895270
  - # 18
    frequency:   20.2103274050

- q-position: [    0.0000000,    0.0700000,    0.0000000 ]
  distance:    0.0164834
  band:
  - # 1
    frequency:    0.1227728102
  - # 2
    frequency:    0.1227728102
  - # 3
    frequency:    0.7712357627
  - # 4
    frequency:    1.9784521118
  - # 5
    frequency:    1.9856116950
  - # 6
    frequency:    1.9856116950
  - # 7
    frequency:    2.4395080283
  - # 8
    frequency:    2.4638282654
  - # 9
    frequency:    4.2934773433
  - # 10
    frequency:    4.2934773433
  - # 11
    frequency:    4.4539407726
  - # 12
    frequency:   10.7305978788
  - # 13
    frequency:   16.0663383788
  - # 14
    frequency:   16.0663383788
  - # 15
    frequency:   16.1101171330
  - # 16
    frequency:   19.6109237196
  - # 17
    frequency:   19.6109237196
  - # 18
    frequency:   20.1979889967

- q-position: [    0.0000000,    0.0800000,    0.0000000 ]
  distance:    0.0188382
  band:
  - # 1
    frequency:    0.1409371586
  - # 2
    frequency:    0.1409371586
  - # 3
    frequency:    0.8783568853
  - # 4
    frequency:    1.9790739802
  - # 5
    frequency:    1.9883980874
  - # 6
    frequency:    1.9883980874
  - # 7
    frequency:    2.4368052913
  - # 8
    frequency:    2.4684668315
  - # 9
    frequency:    4.2778272203
  - # 10
    frequency:    4.2778272203
  - # 11
    frequency:    4.4658398262
  - # 12
    frequency:   10.6995659461
  - # 13
    frequency:   16.0768318495
  - # 14
    frequency:   16.0768318495
  - # 15
    frequency:   16.1335361585
  - # 16
    frequency:   19.6047559781
  - # 17
    frequency:   19.6047559781
  - # 18
    frequency:   20.1837961837

- q-position: [    0.0000000,    0.0900000,    0.0000000 ]
  distance:    0.0211929
  band:
  - # 1
    frequency:    0.1592158820
  - # 2
    frequency:    0.1592158820
  - # 3
    frequency:    0.9842005824
  - # 4
    frequency:    1.9797878279
  - # 5
    frequency:    1.9915504323
  - # 6
    frequency:    1.9915504323
  - # 7
    frequency:    2.4337576085
  - # 8
    frequency:    2.4736812059
  - # 9
    frequency:    4.2601969410
  - # 10
    frequency:    4.2601969410
  - # 11
    frequency:    4.4795830812
  - # 12
    frequency:   10.6647387438
  - # 13
    frequency:   16.0886361621
  - # 14
    frequency:   16.0886361621
  - # 15
    frequency:   16.1597389394
  - # 16
    frequency:   19.5977966810
  - # 17
    frequency:   19.5977966810
  - # 18
    frequency:   20.1677674386

- q-position: [    0.0000000,    0.1000000,    0.0000000 ]
  distance:    0.0235477
  band:
  - # 1
    frequency:    0.1776301212
  - # 2
    frequency:    0.1776301212
  - # 3
    frequency:    1.0885872608
  - # 4
    frequency:    1.9805969391
  - # 5
    frequency:    1.9950671368
  - # 6
    frequency:    1.9950671368
  - # 7
    frequency:    2.4303706914
  - # 8
    frequency:    2.4794558267
  - # 9
    frequency:    4.2406259571
  - # 10
    frequency:    4.2406259571
  - # 11
    frequency:    4.4952675728
  - # 12
    frequency:   10.6262304375
  - # 13
    frequency:   16.1017185102
  - # 14
    frequency:   16.1017185102
  - # 15
    frequency:   16.1886127531
  - # 16
    frequency:   19.5900577744
  - # 17
    frequency:   19.5900577744
  - # 18
    frequency:   20.1499234970

- q-position: [    0.0000000,    0.1100000,    0.0000000 ]
  distance:    0.0259025
  band:
  - # 1
    frequency:    0.1961964359
  - # 2
    frequency:    0.1961964359
  - # 3
    frequency:    1.1913306144
  - # 4
    frequency:    1.9815049175
  - # 5
    frequency:    1.9989467079
  - # 6
    frequency:    1.9989467079
  - # 7
    frequency:    2.4266508820
  - # 8
    frequency:    2.4857735466
  - # 9
    frequency:    4.2191580818
  - # 10
    frequency:    4.2191580818
  - # 11
    frequency:    4.5130013848
  - # 12
    frequency:   10.5841613897
  - # 13
    frequency:   16.1160423913
  - # 14
    frequency:   16.1160423913
  - # 15
    frequency:   16.2200389167
  - # 16
    frequency:   19.5815528419
  - # 17
    frequency:   19.5815528419
  - # 18
    frequency:   20.1302872842

- q-position: [    0.0000000,    0.1200000,    0.0000000 ]
  distance:    0.0282572
  band:
  - # 1
    frequency:    0.2149278730
  - # 2
    frequency:    0.2149278730
  - # 3
    frequency:    1.2922379817
  - # 4
    frequency:    1.9825156648
  - # 5
    frequency:    2.0031878445
  - # 6
    frequency:    2.0031878445
  - # 7
    frequency:    2.4226051387
  - # 8
    frequency:    2.4926157062
  - # 9
    frequency:    4.1958414066
  - # 10
    frequency:    4.1958414066
  - # 11
    frequency:    4.5329030317
  - # 12
    frequency:   10.5386564838
  - # 13
    frequency:   16.1315676511
  - # 14
    frequency:   16.1315676511
  - # 15
    frequency:   16.2538944829
  - # 16
    frequency:   19.5722971831
  - # 17
    frequency:   19.5722971831
  - # 18
    frequency:   20.1088838360

- q-position: [    0.0000000,    0.1300000,    0.0000000 ]
  distance:    0.0306120
  band:
  - # 1
    frequency:    0.2338344495
  - # 2
    frequency:    0.2338344495
  - # 3
    frequency:    1.3911110067
  - # 4
    frequency:    1.9836333563
  - # 5
    frequency:    2.0077895377
  - # 6
    frequency:    2.0077895377
  - # 7
    frequency:    2.4182410216
  - # 8
    frequency:    2.4999622101
  - # 9
    frequency:    4.1707282122
  - # 10
    frequency:    4.1707282122
  - # 11
    frequency:    4.5551005023
  - # 12
    frequency:   10.4898435538
  - # 13
    frequency:   16.1482505271
  - # 14
    frequency:   16.1482505271
  - # 15
    frequency:   16.2900538337
  - # 16
    frequency:   19.5623078999
  - # 17
    frequency:   19.5623078999
  - # 18
    frequency:   20.0857402109

- q-position: [    0.0000000,    0.1400000,    0.0000000 ]
  distance:    0.0329668
  band:
  - # 1
    frequency:    0.2529233463
  - # 2
    frequency:    0.2529233463
  - # 3
    frequency:    1.4877467178
  - # 4
    frequency:    1.9848624158
  - # 5
    frequency:    2.0127511783
  - # 6
    frequency:    2.0127511783
  - # 7
    frequency:    2.4135666754
  - # 8
    frequency:    2.5077916055
  - # 9
    frequency:    4.1438748775
  - # 10
    frequency:    4.1438748775
  - # 11
    frequency:    4.5797298871
  - # 12
    frequency:   10.4378519491
  - # 13
    frequency:   16.1660436914
  - # 14
    frequency:   16.1660436914
  - # 15
    frequency:   16.3283901383
  - # 16
    frequency:   19.5516039927
  - # 17
    frequency:   19.5516039927
  - # 18
    frequency:   20.0608853970

- q-position: [    0.0000000,    0.1500000,    0.0000000 ]
  distance:    0.0353215
  band:
  - # 1
    frequency:    0.2721989462
  - # 2
    frequency:    0.2721989462
  - # 3
    frequency:    1.5819391149
  - # 4
    frequency:    1.9862074871
  - # 5
    frequency:    2.0180726699
  - # 6
    frequency:    2.0180726699
  - # 7
    frequency:    2.4085908119
  - # 8
    frequency:    2.5160811624
  - # 9
    frequency:    4.1153417867
  - # 10
    frequency:    4.1153417867
  - # 11
    frequency:    4.6069335136
  - # 12
    frequency:   10.3828112559
  - # 13
    frequency:   16.1848962900
  - # 14
    frequency:   16.1848962900
  - # 15
    frequency:   16.3687766570
  - # 16
    frequency:   19.5402064645
  - # 17
    frequency:   19.5402064645
  - # 18
    frequency:   20.0343502130

- q-position: [    0.0000000,    0.1600000,    0.0000000 ]
  distance:    0.0376763
  band:
  - # 1
    frequency:    0.2916627844
  - # 2
    frequency:    0.2916627844
  - # 3
    frequency:    1.6734813314
  - # 4
    frequency:    1.9876734053
  - # 5
    frequency:    2.0237545465
  - # 6
    frequency:    2.0237545465
  - # 7
    frequency:    2.4033226899
  - # 8
    frequency:    2.5248069532
  - # 9
    frequency:    4.0851932355
  - # 10
    frequency:    4.0851932355
  - # 11
    frequency:    4.6368575298
  - # 12
    frequency:   10.3248501864
  - # 13
    frequency:   16.2047539787
  - # 14
    frequency:   16.2047539787
  - # 15
    frequency:   16.4110878783
  - # 16
    frequency:   19.5281384334
  - # 17
    frequency:   19.5281384334
  - # 18
    frequency:   20.0061672030

- q-position: [    0.0000000,    0.1700000,    0.0000000 ]
  distance:    0.0400311
  band:
  - # 1
    frequency:    0.3113134444
  - # 2
    frequency:    0.3113134444
  - # 3
    frequency:    1.7621684075
  - # 4
    frequency:    1.9892651650
  - # 5
    frequency:    2.0297980950
  - # 6
    frequency:    2.0297980950
  - # 7
    frequency:    2.3977720951
  - # 8
    frequency:    2.5339439322
  - # 9
    frequency:    4.0534973391
  - # 10
    frequency:    4.0534973391
  - # 11
    frequency:    4.6696489014
  - # 12
    frequency:   10.2640956380
  - # 13
    frequency:   16.2255589546
  - # 14
    frequency:   16.2255589546
  - # 15
    frequency:   16.4552004864
  - # 16
    frequency:   19.5154252546
  - # 17
    frequency:   19.5154252546
  - # 18
    frequency:   19.9763705273

- q-position: [    0.0000000,    0.1800000,    0.0000000 ]
  distance:    0.0423859
  band:
  - # 1
    frequency:    0.3311464208
  - # 2
    frequency:    0.3311464208
  - # 3
    frequency:    1.8478006669
  - # 4
    frequency:    1.9909878884
  - # 5
    frequency:    2.0362054771
  - # 6
    frequency:    2.0362054771
  - # 7
    frequency:    2.3919493178
  - # 8
    frequency:    2.5434660128
  - # 9
    frequency:    4.0203259424
  - # 10
    frequency:    4.0203259424
  - # 11
    frequency:    4.7054518279
  - # 12
    frequency:   10.2006719197
  - # 13
    frequency:   16.2472499813
  - # 14
    frequency:   16.2472499813
  - # 15
    frequency:   16.5009941622
  - # 16
    frequency:   19.5020946500
  - # 17
    frequency:   19.5020946500
  - # 18
    frequency:   19.9449958487

- q-position: [    0.0000000,    0.1900000,    0.0000000 ]
  distance:    0.0447406
  band:
  - # 1
    frequency:    0.3511539586
  - # 2
    frequency:    0.3511539586
  - # 3
    frequency:    1.9301876341
  - # 4
    frequency:    1.9928467906
  - # 5
    frequency:    2.0429798516
  - # 6
    frequency:    2.0429798516
  - # 7
    frequency:    2.3858651290
  - # 8
    frequency:    2.5533461424
  - # 9
    frequency:    3.9857545348
  - # 10
    frequency:    3.9857545348
  - # 11
    frequency:    4.7444036424
  - # 12
    frequency:   10.1347001380
  - # 13
    frequency:   16.2697624079
  - # 14
    frequency:   16.2697624079
  - # 15
    frequency:   16.5483522264
  - # 16
    frequency:   19.4881768460
  - # 17
    frequency:   19.4881768460
  - # 18
    frequency:   19.9120802151

- q-position: [    0.0000000,    0.2000000,    0.0000000 ]
  distance:    0.0470954
  band:
  - # 1
    frequency:    0.3713248765
  - # 2
    frequency:    0.3713248765
  - # 3
    frequency:    1.9948471446
  - # 4
    frequency:    2.0091523623
  - # 5
    frequency:    2.0501254927
  - # 6
    frequency:    2.0501254927
  - # 7
    frequency:    2.3795307565
  - # 8
    frequency:    2.5635563736
  - # 9
    frequency:    3.9498621717
  - # 10
    frequency:    3.9498621717
  - # 11
    frequency:    4.7866303220
  - # 12
    frequency:   10.0662977287
  - # 13
    frequency:   16.2930281817
  - # 14
    frequency:   16.2930281817
  - # 15
    frequency:   16.5971621359
  - # 16
    frequency:   19.4737047182
  - # 17
    frequency:   19.4737047182
  - # 18
    frequency:   19.8776619389

- q-position: [    0.0000000,    0.2100000,    0.0000000 ]
  distance:    0.0494502
  band:
  - # 1
    frequency:    0.3916443791
  - # 2
    frequency:    0.3916443791
  - # 3
    frequency:    1.9969942453
  - # 4
    frequency:    2.0576478995
  - # 5
    frequency:    2.0576478995
  - # 6
    frequency:    2.0845359683
  - # 7
    frequency:    2.3729578581
  - # 8
    frequency:    2.5740679305
  - # 9
    frequency:    3.9127314038
  - # 10
    frequency:    3.9127314038
  - # 11
    frequency:    4.8322418103
  - # 12
    frequency:    9.9955781226
  - # 13
    frequency:   16.3169758539
  - # 14
    frequency:   16.3169758539
  - # 15
    frequency:   16.6473158481
  - # 16
    frequency:   19.4587139437
  - # 17
    frequency:   19.4587139437
  - # 18
    frequency:   19.8417804746

- q-position: [    0.0000000,    0.2200000,    0.0000000 ]
  distance:    0.0518049
  band:
  - # 1
    frequency:    0.4120938611
  - # 2
    frequency:    0.4120938611
  - # 3
    frequency:    1.9992933715
  - # 4
    frequency:    2.0655538944
  - # 5
    frequency:    2.0655538944
  - # 6
    frequency:    2.1562021078
  - # 7
    frequency:    2.3661584947
  - # 8
    frequency:    2.5848512707
  - # 9
    frequency:    3.8744482184
  - # 10
    frequency:    3.8744482184
  - # 11
    frequency:    4.8813274163
  - # 12
    frequency:    9.9226505286
  - # 13
    frequency:   16.3415305785
  - # 14
    frequency:   16.3415305785
  - # 15
    frequency:   16.6987100675
  - # 16
    frequency:   19.4432431571
  - # 17
    frequency:   19.4432431571
  - # 18
    frequency:   19.8044762941

- q-position: [    0.0000000,    0.2300000,    0.0000000 ]
  distance:    0.0541597
  band:
  - # 1
    frequency:    0.4326507092
  - # 2
    frequency:    0.4326507092
  - # 3
    frequency:    2.0017497484
  - # 4
    frequency:    2.0738517012
  - # 5
    frequency:    2.0738517012
  - # 6
    frequency:    2.2240410789
  - # 7
    frequency:    2.3591451018
  - # 8
    frequency:    2.5958761406
  - # 9
    frequency:    3.8351019947
  - # 10
    frequency:    3.8351019947
  - # 11
    frequency:    4.9339516026
  - # 12
    frequency:    9.8476198195
  - # 13
    frequency:   16.3666141061
  - # 14
    frequency:   16.3666141061
  - # 15
    frequency:   16.7512463897
  - # 16
    frequency:   19.4273341119
  - # 17
    frequency:   19.4273341119
  - # 18
    frequency:   19.7657907620

- q-position: [    0.0000000,    0.2400000,    0.0000000 ]
  distance:    0.0565145
  band:
  - # 1
    frequency:    0.4532881022
  - # 2
    frequency:    0.4532881022
  - # 3
    frequency:    2.0043685092
  - # 4
    frequency:    2.0825509986
  - # 5
    frequency:    2.0825509986
  - # 6
    frequency:    2.2879732276
  - # 7
    frequency:    2.3519304600
  - # 8
    frequency:    2.6071116249
  - # 9
    frequency:    3.7947854769
  - # 10
    frequency:    3.7947854769
  - # 11
    frequency:    4.9901504839
  - # 12
    frequency:    9.7705865062
  - # 13
    frequency:   16.3921447733
  - # 14
    frequency:   16.3921447733
  - # 15
    frequency:   16.8048313589
  - # 16
    frequency:   19.4110318425
  - # 17
    frequency:   19.4110318425
  - # 18
    frequency:   19.7257660094

- q-position: [    0.0000000,    0.2500000,    0.0000000 ]
  distance:    0.0588692
  band:
  - # 1
    frequency:    0.4739748176
  - # 2
    frequency:    0.4739748176
  - # 3
    frequency:    2.0071546556
  - # 4
    frequency:    2.0916629364
  - # 5
    frequency:    2.0916629364
  - # 6
    frequency:    2.3445276638
  - # 7
    frequency:    2.3479513587
  - # 8
    frequency:    2.6185261887
  - # 9
    frequency:    3.7535947710
  - # 10
    frequency:    3.7535947710
  - # 11
    frequency:    5.0499293338
  - # 12
    frequency:    9.6916467853
  - # 13
    frequency:   16.4180374899
  - # 14
    frequency:   16.4180374899
  - # 15
    frequency:   16.8593764510
  - # 16
    frequency:   19.3943848250
  - # 17
    frequency:   19.3943848250
  - # 18
    frequency:   19.6844448092

- q-position: [    0.0000000,    0.2600000,    0.0000000 ]
  distance:    0.0612240
  band:
  - # 1
    frequency:    0.4946750470
  - # 2
    frequency:    0.4946750470
  - # 3
    frequency:    2.0101130195
  - # 4
    frequency:    2.1012001046
  - # 5
    frequency:    2.1012001046
  - # 6
    frequency:    2.3369500902
  - # 7
    frequency:    2.4039619265
  - # 8
    frequency:    2.6300877119
  - # 9
    frequency:    3.7116293696
  - # 10
    frequency:    3.7116293696
  - # 11
    frequency:    5.1132613218
  - # 12
    frequency:    9.6108926490
  - # 13
    frequency:   16.4442037274
  - # 14
    frequency:   16.4442037274
  - # 15
    frequency:   16.9147979966
  - # 16
    frequency:   19.3774451336
  - # 17
    frequency:   19.3774451336
  - # 18
    frequency:   19.6418704521

- q-position: [    0.0000000,    0.2700000,    0.0000000 ]
  distance:    0.0635788
  band:
  - # 1
    frequency:    0.5153482296
  - # 2
    frequency:    0.5153482296
  - # 3
    frequency:    2.0132482235
  - # 4
    frequency:    2.1111764386
  - # 5
    frequency:    2.1111764386
  - # 6
    frequency:    2.3292113657
  - # 7
    frequency:    2.4560248901
  - # 8
    frequency:    2.6417635160
  - # 9
    frequency:    3.6689922148
  - # 10
    frequency:    3.6689922148
  - # 11
    frequency:    5.1800875962
  - # 12
    frequency:    9.5284120445
  - # 13
    frequency:   16.4705515127
  - # 14
    frequency:   16.4705515127
  - # 15
    frequency:   16.9710170541
  - # 16
    frequency:   19.3602685876
  - # 17
    frequency:   19.3602685876
  - # 18
    frequency:   19.5980866245

- q-position: [    0.0000000,    0.2800000,    0.0000000 ]
  distance:    0.0659336
  band:
  - # 1
    frequency:    0.5359489096
  - # 2
    frequency:    0.5359489096
  - # 3
    frequency:    2.0165646428
  - # 4
    frequency:    2.1216070429
  - # 5
    frequency:    2.1216070429
  - # 6
    frequency:    2.3213253325
  - # 7
    frequency:    2.5041922416
  - # 8
    frequency:    2.6535203819
  - # 9
    frequency:    3.6257898078
  - # 10
    frequency:    3.6257898078
  - # 11
    frequency:    5.2503187008
  - # 12
    frequency:    9.4442890742
  - # 13
    frequency:   16.4969854318
  - # 14
    frequency:   16.4969854318
  - # 15
    frequency:   17.0279592443
  - # 16
    frequency:   19.3429148831
  - # 17
    frequency:   19.3429148831
  - # 18
    frequency:   19.5531372892

- q-position: [    0.0000000,    0.2900000,    0.0000000 ]
  distance:    0.0682883
  band:
  - # 1
    frequency:    0.5564266291
  - # 2
    frequency:    0.5564266291
  - # 3
    frequency:    2.0200663667
  - # 4
    frequency:    2.1325079082
  - # 5
    frequency:    2.1325079082
  - # 6
    frequency:    2.3133060137
  - # 7
    frequency:    2.5485453442
  - # 8
    frequency:    2.6653245591
  - # 9
    frequency:    3.5821323803
  - # 10
    frequency:    3.5821323803
  - # 11
    frequency:    5.3238371899
  - # 12
    frequency:    9.3586042282
  - # 13
    frequency:   16.5234066508
  - # 14
    frequency:   16.5234066508
  - # 15
    frequency:   17.0855545545
  - # 16
    frequency:   19.3254477028
  - # 17
    frequency:   19.3254477028
  - # 18
    frequency:   19.5070665693

- q-position: [    0.0000000,    0.3000000,    0.0000000 ]
  distance:    0.0706431
  band:
  - # 1
    frequency:    0.5767258666
  - # 2
    frequency:    0.5767258666
  - # 3
    frequency:    2.0237571615
  - # 4
    frequency:    2.1438954927
  - # 5
    frequency:    2.1438954927
  - # 6
    frequency:    2.3051675781
  - # 7
    frequency:    2.5891913191
  - # 8
    frequency:    2.6771417654
  - # 9
    frequency:    3.5381341452
  - # 10
    frequency:    3.5381341452
  - # 11
    frequency:    5.4005012000
  - # 12
    frequency:    9.2714346413
  - # 13
    frequency:   16.5497129629
  - # 14
    frequency:   16.5497129629
  - # 15
    frequency:   17.1437371188
  - # 16
    frequency:   19.3079347950
  - # 17
    frequency:   19.3079347950
  - # 18
    frequency:   19.4599186359

- q-position: [    0.0000000,    0.3100000,    0.0000000 ]
  distance:    0.0729979
  band:
  - # 1
    frequency:    0.5967860336
  - # 2
    frequency:    0.5967860336
  - # 3
    frequency:    2.0276404342
  - # 4
    frequency:    2.1557861289
  - # 5
    frequency:    2.1557861289
  - # 6
    frequency:    2.2969243036
  - # 7
    frequency:    2.6262587843
  - # 8
    frequency:    2.6889371767
  - # 9
    frequency:    3.4939136528
  - # 10
    frequency:    3.4939136528
  - # 11
    frequency:    5.4801486744
  - # 12
    frequency:    9.1828543695
  - # 13
    frequency:   16.5757988693
  - # 14
    frequency:   16.5757988693
  - # 15
    frequency:   17.2024449834
  - # 16
    frequency:   19.2904480126
  - # 17
    frequency:   19.2904480126
  - # 18
    frequency:   19.4117376011

- q-position: [    0.0000000,    0.3200000,    0.0000000 ]
  distance:    0.0753526
  band:
  - # 1
    frequency:    0.6165415448
  - # 2
    frequency:    0.6165415448
  - # 3
    frequency:    2.0317191973
  - # 4
    frequency:    2.1681952096
  - # 5
    frequency:    2.1681952096
  - # 6
    frequency:    2.2885905408
  - # 7
    frequency:    2.6598932704
  - # 8
    frequency:    2.7006754063
  - # 9
    frequency:    3.4495942858
  - # 10
    frequency:    3.4495942858
  - # 11
    frequency:    5.5626019136
  - # 12
    frequency:    9.0929346812
  - # 13
    frequency:   16.6015557084
  - # 14
    frequency:   16.6015557084
  - # 15
    frequency:   17.2616198592
  - # 16
    frequency:   19.2730632985
  - # 17
    frequency:   19.2730632985
  - # 18
    frequency:   19.3625674156

- q-position: [    0.0000000,    0.3300000,    0.0000000 ]
  distance:    0.0777074
  band:
  - # 1
    frequency:    0.6359219750
  - # 2
    frequency:    0.6359219750
  - # 3
    frequency:    2.0359960354
  - # 4
    frequency:    2.1811360900
  - # 5
    frequency:    2.1811360900
  - # 6
    frequency:    2.2801806751
  - # 7
    frequency:    2.6902526217
  - # 8
    frequency:    2.7123204740
  - # 9
    frequency:    3.4053049394
  - # 10
    frequency:    3.4053049394
  - # 11
    frequency:    5.6476721452
  - # 12
    frequency:    9.0017443591
  - # 13
    frequency:   16.6268718449
  - # 14
    frequency:   16.6268718449
  - # 15
    frequency:   17.3212068688
  - # 16
    frequency:   19.2558606056
  - # 17
    frequency:   19.2558606056
  - # 18
    frequency:   19.3124517730

- q-position: [    0.0000000,    0.3400000,    0.0000000 ]
  distance:    0.0800622
  band:
  - # 1
    frequency:    0.6548523198
  - # 2
    frequency:    0.6548523198
  - # 3
    frequency:    2.0404730727
  - # 4
    frequency:    2.1946186290
  - # 5
    frequency:    2.1946186290
  - # 6
    frequency:    2.2717090892
  - # 7
    frequency:    2.7175026359
  - # 8
    frequency:    2.7238357634
  - # 9
    frequency:    3.3611809511
  - # 10
    frequency:    3.3611809511
  - # 11
    frequency:    5.7351638551
  - # 12
    frequency:    8.9093500102
  - # 13
    frequency:   16.6516329339
  - # 14
    frequency:   16.6516329339
  - # 15
    frequency:   17.3811542890
  - # 16
    frequency:   19.2389237353
  - # 17
    frequency:   19.2389237353
  - # 18
    frequency:   19.2614340200

- q-position: [    0.0000000,    0.3500000,    0.0000000 ]
  distance:    0.0824169
  band:
  - # 1
    frequency:    0.6732533742
  - # 2
    frequency:    0.6732533742
  - # 3
    frequency:    2.0451519434
  - # 4
    frequency:    2.2086472675
  - # 5
    frequency:    2.2086472675
  - # 6
    frequency:    2.2631901251
  - # 7
    frequency:    2.7351839671
  - # 8
    frequency:    2.7418131345
  - # 9