# epsilon and Z* of atoms 1 5
   9.42861269    0.00000000    0.00000000    0.00000000    9.42861269    0.00000000    0.00000000    0.00000000    9.42861269 
   0.83307369    0.38756001   -0.38756001    0.38756001    0.83307369   -0.38756001   -0.38756001   -0.38756001    0.83307369 
  -1.66614738    0.00000000    0.00000000    0.00000000   -1.66614738    0.00000000    0.00000000    0.00000000   -1.66614738 
