162  
2    

1    
  0.0100000000000000   0.0000000000000000   0.0000000000000000
  -0.1015722400   -0.0849537900    0.0849537900
   0.0005875600   -0.0001035500    0.0001035500
   0.0005729500   -0.0001110900    0.0001110900
  -0.0000190200   -0.0001074500   -0.0001830200
   0.0001566600    0.0001277500   -0.0000635500
  -0.0000472600    0.0000525600    0.0000129500
  -0.0000243300   -0.0001066000   -0.0001802900
  -0.0000454100    0.0000487500    0.0000124600
   0.0001559200    0.0001264700   -0.0000663900
  -0.0000243300    0.0001802900    0.0001066000
  -0.0000454100   -0.0000124600   -0.0000487500
   0.0001559200    0.0000663900   -0.0001264700
  -0.0000584200   -0.0000117500    0.0000142800
   0.0000306300    0.0000279200    0.0000008000
   0.0000315600   -0.0000008100   -0.0000268000
  -0.0000146300    0.0000651000   -0.0000651000
   0.0000192000   -0.0000019900    0.0000019900
   0.0000506200    0.0000790500   -0.0000790500
  -0.0000190200    0.0001830200    0.0001074500
   0.0001566600    0.0000635500   -0.0001277500
  -0.0000472600   -0.0000129500   -0.0000525600
  -0.0000162900    0.0000664700   -0.0000664700
   0.0000483700    0.0000789900   -0.0000789900
   0.0000183700   -0.0000000500    0.0000000500
  -0.0000584200   -0.0000142800    0.0000117500
   0.0000306300   -0.0000008000   -0.0000279200
   0.0000315600    0.0000268000    0.0000008100
   0.0030399700   -0.0015136100   -0.0027167600
   0.0001041500   -0.0000850100   -0.0000502100
  -0.0010084900    0.0000431400   -0.0007956200
  -0.0001465800   -0.0000743100    0.0000859600
   0.0000486100   -0.0000138900   -0.0000150400
  -0.0000644100    0.0000504300    0.0000950600
  -0.0001449800    0.0001015000    0.0000827500
   0.0000473000   -0.0000200000   -0.0000250200
  -0.0000645900    0.0001576500    0.0001492400
  -0.0009903800    0.0000484100   -0.0007788500
   0.0001069200   -0.0000843300   -0.0000508900
   0.0030324100   -0.0015329700   -0.0026893200
  -0.0000617700    0.0001572800    0.0001509400
   0.0000463000   -0.0000173700   -0.0000259900
  -0.0001476000    0.0000988000    0.0000860300
  -0.0000625400    0.0000483500    0.0000981300
   0.0000481100   -0.0000168900   -0.0000153600
  -0.0001468700   -0.0000728200    0.0000836200
   0.0000246100   -0.0000466200   -0.0000471200
   0.0000495300   -0.0000422900   -0.0000280500
   0.0000234800   -0.0000475900   -0.0000500500
  -0.0000127500    0.0000200400   -0.0000258100
   0.0000356000   -0.0000134700   -0.0000228000
  -0.0000120800   -0.0000001400   -0.0000158400
  -0.0000120100   -0.0000018100   -0.0000136800
   0.0000350800   -0.0000146300   -0.0000231100
  -0.0000136000    0.0000176400   -0.0000245900
  -0.0027374700    0.0015077200   -0.0015077200
   0.0000705100   -0.0001005700    0.0001005700
   0.0000740600    0.0000747200   -0.0000747200
  -0.0000969500    0.0000834100   -0.0000476100
   0.0000276900    0.0000193000   -0.0000004800
   0.0000261100    0.0000146500    0.0000180000
   0.0001009300   -0.0000443800    0.0000458000
   0.0001442300   -0.0001572600    0.0000479100
   0.0001438100   -0.0000514800    0.0001571700
   0.0001009300   -0.0000458000    0.0000443800
   0.0001442300   -0.0000479100    0.0001572600
   0.0001438100   -0.0001571700    0.0000514800
  -0.0000987400    0.0000839000   -0.0000468300
   0.0000276400    0.0000141600    0.0000172000
   0.0000269100    0.0000188200    0.0000000000
  -0.0027682900    0.0015383700   -0.0015383700
   0.0000733000    0.0000722700   -0.0000722700
   0.0000756800   -0.0000983000    0.0000983000
  -0.0000969500    0.0000476100   -0.0000834100
   0.0000276900    0.0000004800   -0.0000193000
   0.0000261100   -0.0000180000   -0.0000146500
  -0.0000583900    0.0000410900   -0.0000410900
  -0.0000007500    0.0000132800   -0.0000132800
  -0.0000005900    0.0000141200   -0.0000141200
  -0.0000987400    0.0000468300   -0.0000839000
   0.0000276400   -0.0000172000   -0.0000141600
   0.0000269100   -0.0000000000   -0.0000188200
   0.0030399700    0.0027167600    0.0015136100
   0.0001041500    0.0000502100    0.0000850100
  -0.0010084900    0.0007956200   -0.0000431400
   0.0000246100    0.0000471200    0.0000466200
   0.0000495300    0.0000280500    0.0000422900
   0.0000234800    0.0000500500    0.0000475900
  -0.0009903800    0.0007788500   -0.0000484100
   0.0001069200    0.0000508900    0.0000843300
   0.0030324100    0.0026893200    0.0015329700
  -0.0001449800   -0.0000827500   -0.0001015000
   0.0000473000    0.0000250200    0.0000200000
  -0.0000645900   -0.0001492400   -0.0001576500
  -0.0000120100    0.0000136800    0.0000018100
   0.0000350800    0.0000231100    0.0000146300
  -0.0000136000    0.0000245900   -0.0000176400
  -0.0000625400   -0.0000981300   -0.0000483500
   0.0000481100    0.0000153600    0.0000168900
  -0.0001468700   -0.0000836200    0.0000728200
  -0.0001465800   -0.0000859600    0.0000743100
   0.0000486100    0.0000150400    0.0000138900
  -0.0000644100   -0.0000950600   -0.0000504300
  -0.0000127500    0.0000258100   -0.0000200400
   0.0000356000    0.0000228000    0.0000134700
  -0.0000120800    0.0000158400    0.0000001400
  -0.0000617700   -0.0001509400   -0.0001572800
   0.0000463000    0.0000259900    0.0000173700
  -0.0001476000   -0.0000860300   -0.0000988000
   0.0467584100    0.0413755300   -0.0413755300
  -0.0003161800   -0.0000262600    0.0000262600
   0.0029771100   -0.0004350000    0.0004350000
   0.0000615400   -0.0002245300    0.0000179000
  -0.0001151300   -0.0000344000   -0.0000224100
   0.0000098600    0.0000242400   -0.0000416500
  -0.0000699500   -0.0013917100   -0.0006117100
  -0.0001495300    0.0000825400    0.0000023700
  -0.0001421900   -0.0000530100    0.0000887900
  -0.0000699500    0.0006117100    0.0013917100
  -0.0001495300   -0.0000023700   -0.0000825400
  -0.0001421900   -0.0000887900    0.0000530100
   0.0000562700   -0.0000385300   -0.0000474100
  -0.0000700300   -0.0000490800   -0.0000212700
   0.0000127800   -0.0000466000    0.0000183900
   0.0005845700    0.0000201000   -0.0000201000
  -0.0000731100   -0.0000349300    0.0000349300
  -0.0001717000   -0.0000011900    0.0000011900
   0.0000615400   -0.0000179000    0.0002245300
  -0.0001151300    0.0000224100    0.0000344000
   0.0000098600    0.0000416500   -0.0000242400
   0.0000560500   -0.0000567600    0.0000567600
  -0.0000405400   -0.0000179400    0.0000179400
   0.0000022100   -0.0000250800    0.0000250800
   0.0000562700    0.0000474100    0.0000385300
  -0.0000700300    0.0000212700    0.0000490800
   0.0000127800   -0.0000183900    0.0000466000
  -0.0000683100    0.0006108300    0.0013958700
  -0.0001296300   -0.0000982000    0.0000468100
  -0.0001458400   -0.0000042100   -0.0000778400
   0.0005766400    0.0000267000   -0.0000267000
  -0.0001640000    0.0000057300   -0.0000057300
  -0.0000743200   -0.0000342400    0.0000342400
   0.0000546600   -0.0000385700   -0.0000468200
   0.0000132600   -0.0000467700    0.0000194000
  -0.0000675500   -0.0000474500   -0.0000237000
   0.0458675500    0.0396862800   -0.0396862800
   0.0030072400   -0.0004508500    0.0004508500
  -0.0003166500   -0.0000224500    0.0000224500
  -0.0000683100   -0.0013958700   -0.0006108300
  -0.0001296300   -0.0000468100    0.0000982000
  -0.0001458400    0.0000778400    0.0000042100
   0.0000639400   -0.0002296600    0.0000147800
   0.0000074600    0.0000250000   -0.0000411900
  -0.0001160400   -0.0000351300   -0.0000232700
   0.0000639400   -0.0000147800    0.0002296600
   0.0000074600    0.0000411900   -0.0000250000
  -0.0001160400    0.0000232700    0.0000351300
   0.0000546600    0.0000468200    0.0000385700
   0.0000132600   -0.0000194000    0.0000467700
  -0.0000675500    0.0000237000    0.0000474500
   0.0000572700   -0.0000592400    0.0000592400
   0.0000046300   -0.0000242800    0.0000242800
  -0.0000390400   -0.0000199200    0.0000199200

109  
  0.0100000000000000   0.0000000000000000   0.0000000000000000
   0.0458901700    0.0398590500   -0.0398590500
   0.0030046400   -0.0013956900    0.0013956900
  -0.0003098200   -0.0002266300    0.0002266300
  -0.0000597100   -0.0004518600   -0.0006157600
  -0.0001316200   -0.0000487900   -0.0000219600
  -0.0001425000    0.0000238500    0.0000373000
   0.0000678300   -0.0000245700    0.0000152400
   0.0000135100    0.0000803800   -0.0000474800
  -0.0001103900   -0.0000332900    0.0000580100
   0.0000678300   -0.0000152400    0.0000245700
   0.0000135100    0.0000474800   -0.0000803800
  -0.0001103900   -0.0000580100    0.0000332900
   0.0000596000    0.0000404100    0.0000021200
   0.0000179200   -0.0000210900    0.0000342900
  -0.0000631800   -0.0000265800    0.0000499100
   0.0000601000    0.0000227700   -0.0000227700
   0.0000098200    0.0000244800   -0.0000244800
  -0.0000336200   -0.0000178400    0.0000178400
  -0.0000597100    0.0006157600    0.0004518600
  -0.0001316200    0.0000219600    0.0000487900
  -0.0001425000   -0.0000373000   -0.0000238500
   0.0005769600   -0.0000943900    0.0000943900
  -0.0001609300    0.0000017200   -0.0000017200
  -0.0000680900   -0.0000470100    0.0000470100
   0.0000596000   -0.0000021200   -0.0000404100
   0.0000179200   -0.0000342900    0.0000210900
  -0.0000631800   -0.0000499100    0.0000265800
   0.0467473400   -0.0411990000   -0.0411990000
  -0.0003118900    0.0002275600    0.0002275600
   0.0029952700    0.0013938600    0.0013938600
  -0.0000687900    0.0004328900   -0.0006066700
  -0.0001427500   -0.0000251600    0.0000383400
  -0.0001308200    0.0000509600   -0.0000264000
   0.0000683400    0.0000251200    0.0000158300
  -0.0001103300    0.0000333300    0.0000588900
   0.0000121900   -0.0000788900   -0.0000461700
  -0.0000687900   -0.0006066700    0.0004328900
  -0.0001427500    0.0000383400   -0.0000251600
  -0.0001308200   -0.0000264000    0.0000509600
   0.0005925900    0.0000932000    0.0000932000
  -0.0000678500    0.0000455400    0.0000455400
  -0.0001604000   -0.0000033700   -0.0000033700
   0.0000606700    0.0000025500   -0.0000411800
  -0.0000626500    0.0000497800    0.0000245200
   0.0000171400    0.0000346800    0.0000199800
   0.0000683400    0.0000158300    0.0000251200
  -0.0001103300    0.0000588900    0.0000333300
   0.0000121900   -0.0000461700   -0.0000788900
   0.0000606700   -0.0000411800    0.0000025500
  -0.0000626500    0.0000245200    0.0000497800
   0.0000171400    0.0000199800    0.0000346800
   0.0000608700   -0.0000229900   -0.0000229900
  -0.0000342300    0.0000191100    0.0000191100
   0.0000101200   -0.0000240000   -0.0000240000
   0.0458901700   -0.0398590500    0.0398590500
   0.0030046400    0.0013956900   -0.0013956900
  -0.0003098200    0.0002266300   -0.0002266300
   0.0000678300    0.0000245700   -0.0000152400
   0.0000135100   -0.0000803800    0.0000474800
  -0.0001103900    0.0000332900   -0.0000580100
  -0.0000597100    0.0004518600    0.0006157600
  -0.0001316200    0.0000487900    0.0000219600
  -0.0001425000   -0.0000238500   -0.0000373000
  -0.0000597100   -0.0006157600   -0.0004518600
  -0.0001316200   -0.0000219600   -0.0000487900
  -0.0001425000    0.0000373000    0.0000238500
   0.0000596000    0.0000021200    0.0000404100
   0.0000179200    0.0000342900   -0.0000210900
  -0.0000631800    0.0000499100   -0.0000265800
   0.0005769600    0.0000943900   -0.0000943900
  -0.0001609300   -0.0000017200    0.0000017200
  -0.0000680900    0.0000470100   -0.0000470100
   0.0000678300    0.0000152400   -0.0000245700
   0.0000135100   -0.0000474800    0.0000803800
  -0.0001103900    0.0000580100   -0.0000332900
   0.0000601000   -0.0000227700    0.0000227700
   0.0000098200   -0.0000244800    0.0000244800
  -0.0000336200    0.0000178400   -0.0000178400
   0.0000596000   -0.0000404100   -0.0000021200
   0.0000179200    0.0000210900   -0.0000342900
  -0.0000631800    0.0000265800   -0.0000499100
   0.0467473400    0.0411990000    0.0411990000
  -0.0003118900   -0.0002275600   -0.0002275600
   0.0029952700   -0.0013938600   -0.0013938600
   0.0000683400   -0.0000251200   -0.0000158300
  -0.0001103300   -0.0000333300   -0.0000588900
   0.0000121900    0.0000788900    0.0000461700
  -0.0000687900   -0.0004328900    0.0006066700
  -0.0001427500    0.0000251600   -0.0000383400
  -0.0001308200   -0.0000509600    0.0000264000
   0.0000683400   -0.0000158300   -0.0000251200
  -0.0001103300   -0.0000588900   -0.0000333300
   0.0000121900    0.0000461700    0.0000788900
   0.0000608700    0.0000229900    0.0000229900
  -0.0000342300   -0.0000191100   -0.0000191100
   0.0000101200    0.0000240000    0.0000240000
   0.0000606700    0.0000411800   -0.0000025500
  -0.0000626500   -0.0000245200   -0.0000497800
   0.0000171400   -0.0000199800   -0.0000346800
  -0.0000687900    0.0006066700   -0.0004328900
  -0.0001427500   -0.0000383400    0.0000251600
  -0.0001308200    0.0000264000   -0.0000509600
   0.0000606700   -0.0000025500    0.0000411800
  -0.0000626500   -0.0000497800   -0.0000245200
   0.0000171400   -0.0000346800   -0.0000199800
   0.0005925900   -0.0000932000   -0.0000932000
  -0.0000678500   -0.0000455400   -0.0000455400
  -0.0001604000    0.0000033700    0.0000033700
  -0.1818202500    0.0000000000    0.0000000000
   0.0001544400    0.0000000000    0.0000000000
   0.0001514600    0.0000000000    0.0000000000
  -0.0002027400    0.0000061500    0.0000015800
   0.0001697800    0.0001809100    0.0000938800
   0.0001698600   -0.0001775700    0.0000899000
  -0.0002027400   -0.0000061500   -0.0000015800
   0.0001697800   -0.0001809100   -0.0000938800
   0.0001698600    0.0001775700   -0.0000899000
  -0.0002027400    0.0000015800    0.0000061500
   0.0001697800    0.0000938800    0.0001809100
   0.0001698600    0.0000899000   -0.0001775700
  -0.0002517400   -0.0000939100   -0.0000939100
   0.0000528100   -0.0000088500   -0.0000088500
   0.0000575200    0.0000095400    0.0000095400
  -0.0002452200   -0.0000900600    0.0000900600
   0.0000561500    0.0000088000   -0.0000088000
   0.0000565600   -0.0000090300    0.0000090300
  -0.0002027400   -0.0000015800   -0.0000061500
   0.0001697800   -0.0000938800   -0.0001809100
   0.0001698600   -0.0000899000    0.0001775700
  -0.0002452200    0.0000900600   -0.0000900600
   0.0000561500   -0.0000088000    0.0000088000
   0.0000565600    0.0000090300   -0.0000090300
  -0.0002517400    0.0000939100    0.0000939100
   0.0000528100    0.0000088500    0.0000088500
   0.0000575200   -0.0000095400   -0.0000095400
  -0.0002852600    0.0000142900    0.0000142900
  -0.0034651700   -0.0014241600   -0.0014241600
   0.0003665400    0.0000432600    0.0000432600
  -0.0034524500   -0.0013114900    0.0013114900
  -0.0002663000    0.0000251700   -0.0000251700
   0.0003697700    0.0000376800   -0.0000376800
  -0.0000435800    0.0000417900    0.0000394100
  -0.0000431000    0.0000386200   -0.0000405600
   0.0001317700    0.0000689000    0.0000036900
  -0.0034524500    0.0013114900   -0.0013114900
  -0.0002663000   -0.0000251700    0.0000251700
   0.0003697700   -0.0000376800    0.0000376800
  -0.0002852600   -0.0000142900   -0.0000142900
  -0.0034651700    0.0014241600    0.0014241600
   0.0003665400   -0.0000432600   -0.0000432600
  -0.0000435800   -0.0000417900   -0.0000394100
  -0.0000431000   -0.0000386200    0.0000405600
   0.0001317700   -0.0000689000   -0.0000036900
  -0.0000435800    0.0000394100    0.0000417900
  -0.0000431000   -0.0000405600    0.0000386200
   0.0001317700    0.0000036900    0.0000689000
  -0.0000435800   -0.0000394100   -0.0000417900
  -0.0000431000    0.0000405600   -0.0000386200
   0.0001317700   -0.0000036900   -0.0000689000
  -0.0000299700    0.0000000000    0.0000000000
  -0.0000250900    0.0000000000    0.0000000000
   0.0000751200    0.0000000000    0.0000000000
