phonopy:
  version: "2.40.0"
  frequency_unit_conversion_factor: 15.633302
  symmetry_tolerance: 1.00000e-05
  configuration:
    create_displacements: ".true."
    primitive_axes: "auto"
    dim: "3 3 3"

physical_unit:
  atomic_mass: "AMU"
  length: "angstrom"

space_group:
  type: "Pn-3m"
  number: 224
  Hall_symbol: "P 4n 2 3 -1n"

primitive_matrix:
- [  1.000000000000000,  0.000000000000000,  0.000000000000000 ]
- [  0.000000000000000,  1.000000000000000,  0.000000000000000 ]
- [  0.000000000000000,  0.000000000000000,  1.000000000000000 ]

supercell_matrix:
- [   3,   0,   0 ]
- [   0,   3,   0 ]
- [   0,   0,   3 ]

primitive_cell:
  lattice:
  - [     4.230920295470542,     0.000000000000000,     0.000000000000000 ] # a
  - [     0.000000000000000,     4.230920295470542,     0.000000000000000 ] # b
  - [     0.000000000000000,     0.000000000000000,     4.230920295470542 ] # c
  points:
  - symbol: Cu # 1
    coordinates: [  0.250000000000000,  0.250000000000000,  0.750000000000000 ]
    mass: 63.546000
  - symbol: Cu # 2
    coordinates: [  0.750000000000000,  0.250000000000000,  0.250000000000000 ]
    mass: 63.546000
  - symbol: Cu # 3
    coordinates: [  0.250000000000000,  0.750000000000000,  0.250000000000000 ]
    mass: 63.546000
  - symbol: Cu # 4
    coordinates: [  0.750000000000000,  0.750000000000000,  0.750000000000000 ]
    mass: 63.546000
  - symbol: O # 5
    coordinates: [  0.500000000000000,  0.500000000000000,  0.500000000000000 ]
    mass: 15.999400
  - symbol: O # 6
    coordinates: [  0.000000000000000,  0.000000000000000,  0.000000000000000 ]
    mass: 15.999400
  reciprocal_lattice: # without 2pi
  - [     0.236355197017198,     0.000000000000000,     0.000000000000000 ] # a*
  - [     0.000000000000000,     0.236355197017198,     0.000000000000000 ] # b*
  - [     0.000000000000000,     0.000000000000000,     0.236355197017198 ] # c*

unit_cell:
  lattice:
  - [     4.230920295470542,    -0.000000000000000,    -0.000000000000000 ] # a
  - [    -0.000000000000000,     4.230920295470542,    -0.000000000000000 ] # b
  - [    -0.000000000000000,    -0.000000000000000,     4.230920295470542 ] # c
  points:
  - symbol: Cu # 1
    coordinates: [  0.250000000000000,  0.250000000000000,  0.750000000000000 ]
    mass: 63.546000
    reduced_to: 1
  - symbol: Cu # 2
    coordinates: [  0.750000000000000,  0.250000000000000,  0.250000000000000 ]
    mass: 63.546000
    reduced_to: 2
  - symbol: Cu # 3
    coordinates: [  0.250000000000000,  0.750000000000000,  0.250000000000000 ]
    mass: 63.546000
    reduced_to: 3
  - symbol: Cu # 4
    coordinates: [  0.750000000000000,  0.750000000000000,  0.750000000000000 ]
    mass: 63.546000
    reduced_to: 4
  - symbol: O # 5
    coordinates: [  0.500000000000000,  0.500000000000000,  0.500000000000000 ]
    mass: 15.999400
    reduced_to: 5
  - symbol: O # 6
    coordinates: [  0.000000000000000, -0.000000000000000,  0.000000000000000 ]
    mass: 15.999400
    reduced_to: 6

supercell:
  lattice:
  - [    12.692760886411627,     0.000000000000000,     0.000000000000000 ] # a
  - [     0.000000000000000,    12.692760886411627,     0.000000000000000 ] # b
  - [     0.000000000000000,     0.000000000000000,    12.692760886411627 ] # c
  points:
  - symbol: Cu # 1
    coordinates: [  0.083333333333333,  0.083333333333333,  0.250000000000000 ]
    mass: 63.546000
    reduced_to: 1
  - symbol: Cu # 2
    coordinates: [  0.416666666666667,  0.083333333333333,  0.250000000000000 ]
    mass: 63.546000
    reduced_to: 1
  - symbol: Cu # 3
    coordinates: [  0.750000000000000,  0.083333333333333,  0.250000000000000 ]
    mass: 63.546000
    reduced_to: 1
  - symbol: Cu # 4
    coordinates: [  0.083333333333333,  0.416666666666667,  0.250000000000000 ]
    mass: 63.546000
    reduced_to: 1
  - symbol: Cu # 5
    coordinates: [  0.416666666666667,  0.416666666666667,  0.250000000000000 ]
    mass: 63.546000
    reduced_to: 1
  - symbol: Cu # 6
    coordinates: [  0.750000000000000,  0.416666666666667,  0.250000000000000 ]
    mass: 63.546000
    reduced_to: 1
  - symbol: Cu # 7
    coordinates: [  0.083333333333333,  0.750000000000000,  0.250000000000000 ]
    mass: 63.546000
    reduced_to: 1
  - symbol: Cu # 8
    coordinates: [  0.416666666666667,  0.750000000000000,  0.250000000000000 ]
    mass: 63.546000
    reduced_to: 1
  - symbol: Cu # 9
    coordinates: [  0.750000000000000,  0.750000000000000,  0.250000000000000 ]
    mass: 63.546000
    reduced_to: 1
  - symbol: Cu # 10
    coordinates: [  0.083333333333333,  0.083333333333333,  0.583333333333333 ]
    mass: 63.546000
    reduced_to: 1
  - symbol: Cu # 11
    coordinates: [  0.416666666666667,  0.083333333333333,  0.583333333333333 ]
    mass: 63.546000
    reduced_to: 1
  - symbol: Cu # 12
    coordinates: [  0.750000000000000,  0.083333333333333,  0.583333333333333 ]
    mass: 63.546000
    reduced_to: 1
  - symbol: Cu # 13
    coordinates: [  0.083333333333333,  0.416666666666667,  0.583333333333333 ]
    mass: 63.546000
    reduced_to: 1
  - symbol: Cu # 14
    coordinates: [  0.416666666666667,  0.416666666666667,  0.583333333333333 ]
    mass: 63.546000
    reduced_to: 1
  - symbol: Cu # 15
    coordinates: [  0.750000000000000,  0.416666666666667,  0.583333333333333 ]
    mass: 63.546000
    reduced_to: 1
  - symbol: Cu # 16
    coordinates: [  0.083333333333333,  0.750000000000000,  0.583333333333333 ]
    mass: 63.546000
    reduced_to: 1
  - symbol: Cu # 17
    coordinates: [  0.416666666666667,  0.750000000000000,  0.583333333333333 ]
    mass: 63.546000
    reduced_to: 1
  - symbol: Cu # 18
    coordinates: [  0.750000000000000,  0.750000000000000,  0.583333333333333 ]
    mass: 63.546000
    reduced_to: 1
  - symbol: Cu # 19
    coordinates: [  0.083333333333333,  0.083333333333333,  0.916666666666667 ]
    mass: 63.546000
    reduced_to: 1
  - symbol: Cu # 20
    coordinates: [  0.416666666666667,  0.083333333333333,  0.916666666666667 ]
    mass: 63.546000
    reduced_to: 1
  - symbol: Cu # 21
    coordinates: [  0.750000000000000,  0.083333333333333,  0.916666666666667 ]
    mass: 63.546000
    reduced_to: 1
  - symbol: Cu # 22
    coordinates: [  0.083333333333333,  0.416666666666667,  0.916666666666667 ]
    mass: 63.546000
    reduced_to: 1
  - symbol: Cu # 23
    coordinates: [  0.416666666666667,  0.416666666666667,  0.916666666666667 ]
    mass: 63.546000
    reduced_to: 1
  - symbol: Cu # 24
    coordinates: [  0.750000000000000,  0.416666666666667,  0.916666666666667 ]
    mass: 63.546000
    reduced_to: 1
  - symbol: Cu # 25
    coordinates: [  0.083333333333333,  0.750000000000000,  0.916666666666667 ]
    mass: 63.546000
    reduced_to: 1
  - symbol: Cu # 26
    coordinates: [  0.416666666666667,  0.750000000000000,  0.916666666666667 ]
    mass: 63.546000
    reduced_to: 1
  - symbol: Cu # 27
    coordinates: [  0.750000000000000,  0.750000000000000,  0.916666666666667 ]
    mass: 63.546000
    reduced_to: 1
  - symbol: Cu # 28
    coordinates: [  0.250000000000000,  0.083333333333333,  0.083333333333333 ]
    mass: 63.546000
    reduced_to: 28
  - symbol: Cu # 29
    coordinates: [  0.583333333333333,  0.083333333333333,  0.083333333333333 ]
    mass: 63.546000
    reduced_to: 28
  - symbol: Cu # 30
    coordinates: [  0.916666666666667,  0.083333333333333,  0.083333333333333 ]
    mass: 63.546000
    reduced_to: 28
  - symbol: Cu # 31
    coordinates: [  0.250000000000000,  0.416666666666667,  0.083333333333333 ]
    mass: 63.546000
    reduced_to: 28
  - symbol: Cu # 32
    coordinates: [  0.583333333333333,  0.416666666666667,  0.083333333333333 ]
    mass: 63.546000
    reduced_to: 28
  - symbol: Cu # 33
    coordinates: [  0.916666666666667,  0.416666666666667,  0.083333333333333 ]
    mass: 63.546000
    reduced_to: 28
  - symbol: Cu # 34
    coordinates: [  0.250000000000000,  0.750000000000000,  0.083333333333333 ]
    mass: 63.546000
    reduced_to: 28
  - symbol: Cu # 35
    coordinates: [  0.583333333333333,  0.750000000000000,  0.083333333333333 ]
    mass: 63.546000
    reduced_to: 28
  - symbol: Cu # 36
    coordinates: [  0.916666666666667,  0.750000000000000,  0.083333333333333 ]
    mass: 63.546000
    reduced_to: 28
  - symbol: Cu # 37
    coordinates: [  0.250000000000000,  0.083333333333333,  0.416666666666667 ]
    mass: 63.546000
    reduced_to: 28
  - symbol: Cu # 38
    coordinates: [  0.583333333333333,  0.083333333333333,  0.416666666666667 ]
    mass: 63.546000
    reduced_to: 28
  - symbol: Cu # 39
    coordinates: [  0.916666666666667,  0.083333333333333,  0.416666666666667 ]
    mass: 63.546000
    reduced_to: 28
  - symbol: Cu # 40
    coordinates: [  0.250000000000000,  0.416666666666667,  0.416666666666667 ]
    mass: 63.546000
    reduced_to: 28
  - symbol: Cu # 41
    coordinates: [  0.583333333333333,  0.416666666666667,  0.416666666666667 ]
    mass: 63.546000
    reduced_to: 28
  - symbol: Cu # 42
    coordinates: [  0.916666666666667,  0.416666666666667,  0.416666666666667 ]
    mass: 63.546000
    reduced_to: 28
  - symbol: Cu # 43
    coordinates: [  0.250000000000000,  0.750000000000000,  0.416666666666667 ]
    mass: 63.546000
    reduced_to: 28
  - symbol: Cu # 44
    coordinates: [  0.583333333333333,  0.750000000000000,  0.416666666666667 ]
    mass: 63.546000
    reduced_to: 28
  - symbol: Cu # 45
    coordinates: [  0.916666666666667,  0.750000000000000,  0.416666666666667 ]
    mass: 63.546000
    reduced_to: 28
  - symbol: Cu # 46
    coordinates: [  0.250000000000000,  0.083333333333333,  0.750000000000000 ]
    mass: 63.546000
    reduced_to: 28
  - symbol: Cu # 47
    coordinates: [  0.583333333333333,  0.083333333333333,  0.750000000000000 ]
    mass: 63.546000
    reduced_to: 28
  - symbol: Cu # 48
    coordinates: [  0.916666666666667,  0.083333333333333,  0.750000000000000 ]
    mass: 63.546000
    reduced_to: 28
  - symbol: Cu # 49
    coordinates: [  0.250000000000000,  0.416666666666667,  0.750000000000000 ]
    mass: 63.546000
    reduced_to: 28
  - symbol: Cu # 50
    coordinates: [  0.583333333333333,  0.416666666666667,  0.750000000000000 ]
    mass: 63.546000
    reduced_to: 28
  - symbol: Cu # 51
    coordinates: [  0.916666666666667,  0.416666666666667,  0.750000000000000 ]
    mass: 63.546000
    reduced_to: 28
  - symbol: Cu # 52
    coordinates: [  0.250000000000000,  0.750000000000000,  0.750000000000000 ]
    mass: 63.546000
    reduced_to: 28
  - symbol: Cu # 53
    coordinates: [  0.583333333333333,  0.750000000000000,  0.750000000000000 ]
    mass: 63.546000
    reduced_to: 28
  - symbol: Cu # 54
    coordinates: [  0.916666666666667,  0.750000000000000,  0.750000000000000 ]
    mass: 63.546000
    reduced_to: 28
  - symbol: Cu # 55
    coordinates: [  0.083333333333333,  0.250000000000000,  0.083333333333333 ]
    mass: 63.546000
    reduced_to: 55
  - symbol: Cu # 56
    coordinates: [  0.416666666666667,  0.250000000000000,  0.083333333333333 ]
    mass: 63.546000
    reduced_to: 55
  - symbol: Cu # 57
    coordinates: [  0.750000000000000,  0.250000000000000,  0.083333333333333 ]
    mass: 63.546000
    reduced_to: 55
  - symbol: Cu # 58
    coordinates: [  0.083333333333333,  0.583333333333333,  0.083333333333333 ]
    mass: 63.546000
    reduced_to: 55
  - symbol: Cu # 59
    coordinates: [  0.416666666666667,  0.583333333333333,  0.083333333333333 ]
    mass: 63.546000
    reduced_to: 55
  - symbol: Cu # 60
    coordinates: [  0.750000000000000,  0.583333333333333,  0.083333333333333 ]
    mass: 63.546000
    reduced_to: 55
  - symbol: Cu # 61
    coordinates: [  0.083333333333333,  0.916666666666667,  0.083333333333333 ]
    mass: 63.546000
    reduced_to: 55
  - symbol: Cu # 62
    coordinates: [  0.416666666666667,  0.916666666666667,  0.083333333333333 ]
    mass: 63.546000
    reduced_to: 55
  - symbol: Cu # 63
    coordinates: [  0.750000000000000,  0.916666666666667,  0.083333333333333 ]
    mass: 63.546000
    reduced_to: 55
  - symbol: Cu # 64
    coordinates: [  0.083333333333333,  0.250000000000000,  0.416666666666667 ]
    mass: 63.546000
    reduced_to: 55
  - symbol: Cu # 65
    coordinates: [  0.416666666666667,  0.250000000000000,  0.416666666666667 ]
    mass: 63.546000
    reduced_to: 55
  - symbol: Cu # 66
    coordinates: [  0.750000000000000,  0.250000000000000,  0.416666666666667 ]
    mass: 63.546000
    reduced_to: 55
  - symbol: Cu # 67
    coordinates: [  0.083333333333333,  0.583333333333333,  0.416666666666667 ]
    mass: 63.546000
    reduced_to: 55
  - symbol: Cu # 68
    coordinates: [  0.416666666666667,  0.583333333333333,  0.416666666666667 ]
    mass: 63.546000
    reduced_to: 55
  - symbol: Cu # 69
    coordinates: [  0.750000000000000,  0.583333333333333,  0.416666666666667 ]
    mass: 63.546000
    reduced_to: 55
  - symbol: Cu # 70
    coordinates: [  0.083333333333333,  0.916666666666667,  0.416666666666667 ]
    mass: 63.546000
    reduced_to: 55
  - symbol: Cu # 71
    coordinates: [  0.416666666666667,  0.916666666666667,  0.416666666666667 ]
    mass: 63.546000
    reduced_to: 55
  - symbol: Cu # 72
    coordinates: [  0.750000000000000,  0.916666666666667,  0.416666666666667 ]
    mass: 63.546000
    reduced_to: 55
  - symbol: Cu # 73
    coordinates: [  0.083333333333333,  0.250000000000000,  0.750000000000000 ]
    mass: 63.546000
    reduced_to: 55
  - symbol: Cu # 74
    coordinates: [  0.416666666666667,  0.250000000000000,  0.750000000000000 ]
    mass: 63.546000
    reduced_to: 55
  - symbol: Cu # 75
    coordinates: [  0.750000000000000,  0.250000000000000,  0.750000000000000 ]
    mass: 63.546000
    reduced_to: 55
  - symbol: Cu # 76
    coordinates: [  0.083333333333333,  0.583333333333333,  0.750000000000000 ]
    mass: 63.546000
    reduced_to: 55
  - symbol: Cu # 77
    coordinates: [  0.416666666666667,  0.583333333333333,  0.750000000000000 ]
    mass: 63.546000
    reduced_to: 55
  - symbol: Cu # 78
    coordinates: [  0.750000000000000,  0.583333333333333,  0.750000000000000 ]
    mass: 63.546000
    reduced_to: 55
  - symbol: Cu # 79
    coordinates: [  0.083333333333333,  0.916666666666667,  0.750000000000000 ]
    mass: 63.546000
    reduced_to: 55
  - symbol: Cu # 80
    coordinates: [  0.416666666666667,  0.916666666666667,  0.750000000000000 ]
    mass: 63.546000
    reduced_to: 55
  - symbol: Cu # 81
    coordinates: [  0.750000000000000,  0.916666666666667,  0.750000000000000 ]
    mass: 63.546000
    reduced_to: 55
  - symbol: Cu # 82
    coordinates: [  0.250000000000000,  0.250000000000000,  0.250000000000000 ]
    mass: 63.546000
    reduced_to: 82
  - symbol: Cu # 83
    coordinates: [  0.583333333333333,  0.250000000000000,  0.250000000000000 ]
    mass: 63.546000
    reduced_to: 82
  - symbol: Cu # 84
    coordinates: [  0.916666666666667,  0.250000000000000,  0.250000000000000 ]
    mass: 63.546000
    reduced_to: 82
  - symbol: Cu # 85
    coordinates: [  0.250000000000000,  0.583333333333333,  0.250000000000000 ]
    mass: 63.546000
    reduced_to: 82
  - symbol: Cu # 86
    coordinates: [  0.583333333333333,  0.583333333333333,  0.250000000000000 ]
    mass: 63.546000
    reduced_to: 82
  - symbol: Cu # 87
    coordinates: [  0.916666666666667,  0.583333333333333,  0.250000000000000 ]
    mass: 63.546000
    reduced_to: 82
  - symbol: Cu # 88
    coordinates: [  0.250000000000000,  0.916666666666667,  0.250000000000000 ]
    mass: 63.546000
    reduced_to: 82
  - symbol: Cu # 89
    coordinates: [  0.583333333333333,  0.916666666666667,  0.250000000000000 ]
    mass: 63.546000
    reduced_to: 82
  - symbol: Cu # 90
    coordinates: [  0.916666666666667,  0.916666666666667,  0.250000000000000 ]
    mass: 63.546000
    reduced_to: 82
  - symbol: Cu # 91
    coordinates: [  0.250000000000000,  0.250000000000000,  0.583333333333333 ]
    mass: 63.546000
    reduced_to: 82
  - symbol: Cu # 92
    coordinates: [  0.583333333333333,  0.250000000000000,  0.583333333333333 ]
    mass: 63.546000
    reduced_to: 82
  - symbol: Cu # 93
    coordinates: [  0.916666666666667,  0.250000000000000,  0.583333333333333 ]
    mass: 63.546000
    reduced_to: 82
  - symbol: Cu # 94
    coordinates: [  0.250000000000000,  0.583333333333333,  0.583333333333333 ]
    mass: 63.546000
    reduced_to: 82
  - symbol: Cu # 95
    coordinates: [  0.583333333333333,  0.583333333333333,  0.583333333333333 ]
    mass: 63.546000
    reduced_to: 82
  - symbol: Cu # 96
    coordinates: [  0.916666666666667,  0.583333333333333,  0.583333333333333 ]
    mass: 63.546000
    reduced_to: 82
  - symbol: Cu # 97
    coordinates: [  0.250000000000000,  0.916666666666667,  0.583333333333333 ]
    mass: 63.546000
    reduced_to: 82
  - symbol: Cu # 98
    coordinates: [  0.583333333333333,  0.916666666666667,  0.583333333333333 ]
    mass: 63.546000
    reduced_to: 82
  - symbol: Cu # 99
    coordinates: [  0.916666666666667,  0.916666666666667,  0.583333333333333 ]
    mass: 63.546000
    reduced_to: 82
  - symbol: Cu # 100
    coordinates: [  0.250000000000000,  0.250000000000000,  0.916666666666667 ]
    mass: 63.546000
    reduced_to: 82
  - symbol: Cu # 101
    coordinates: [  0.583333333333333,  0.250000000000000,  0.916666666666667 ]
    mass: 63.546000
    reduced_to: 82
  - symbol: Cu # 102
    coordinates: [  0.916666666666667,  0.250000000000000,  0.916666666666667 ]
    mass: 63.546000
    reduced_to: 82
  - symbol: Cu # 103
    coordinates: [  0.250000000000000,  0.583333333333333,  0.916666666666667 ]
    mass: 63.546000
    reduced_to: 82
  - symbol: Cu # 104
    coordinates: [  0.583333333333333,  0.583333333333333,  0.916666666666667 ]
    mass: 63.546000
    reduced_to: 82
  - symbol: Cu # 105
    coordinates: [  0.916666666666667,  0.583333333333333,  0.916666666666667 ]
    mass: 63.546000
    reduced_to: 82
  - symbol: Cu # 106
    coordinates: [  0.250000000000000,  0.916666666666667,  0.916666666666667 ]
    mass: 63.546000
    reduced_to: 82
  - symbol: Cu # 107
    coordinates: [  0.583333333333333,  0.916666666666667,  0.916666666666667 ]
    mass: 63.546000
    reduced_to: 82
  - symbol: Cu # 108
    coordinates: [  0.916666666666667,  0.916666666666667,  0.916666666666667 ]
    mass: 63.546000
    reduced_to: 82
  - symbol: O # 109
    coordinates: [  0.166666666666667,  0.166666666666667,  0.166666666666667 ]
    mass: 15.999400
    reduced_to: 109
  - symbol: O # 110
    coordinates: [  0.500000000000000,  0.166666666666667,  0.166666666666667 ]
    mass: 15.999400
    reduced_to: 109
  - symbol: O # 111
    coordinates: [  0.833333333333333,  0.166666666666667,  0.166666666666667 ]
    mass: 15.999400
    reduced_to: 109
  - symbol: O # 112
    coordinates: [  0.166666666666667,  0.500000000000000,  0.166666666666667 ]
    mass: 15.999400
    reduced_to: 109
  - symbol: O # 113
    coordinates: [  0.500000000000000,  0.500000000000000,  0.166666666666667 ]
    mass: 15.999400
    reduced_to: 109
  - symbol: O # 114
    coordinates: [  0.833333333333333,  0.500000000000000,  0.166666666666667 ]
    mass: 15.999400
    reduced_to: 109
  - symbol: O # 115
    coordinates: [  0.166666666666667,  0.833333333333333,  0.166666666666667 ]
    mass: 15.999400
    reduced_to: 109
  - symbol: O # 116
    coordinates: [  0.500000000000000,  0.833333333333333,  0.166666666666667 ]
    mass: 15.999400
    reduced_to: 109
  - symbol: O # 117
    coordinates: [  0.833333333333333,  0.833333333333333,  0.166666666666667 ]
    mass: 15.999400
    reduced_to: 109
  - symbol: O # 118
    coordinates: [  0.166666666666667,  0.166666666666667,  0.500000000000000 ]
    mass: 15.999400
    reduced_to: 109
  - symbol: O # 119
    coordinates: [  0.500000000000000,  0.166666666666667,  0.500000000000000 ]
    mass: 15.999400
    reduced_to: 109
  - symbol: O # 120
    coordinates: [  0.833333333333333,  0.166666666666667,  0.500000000000000 ]
    mass: 15.999400
    reduced_to: 109
  - symbol: O # 121
    coordinates: [  0.166666666666667,  0.500000000000000,  0.500000000000000 ]
    mass: 15.999400
    reduced_to: 109
  - symbol: O # 122
    coordinates: [  0.500000000000000,  0.500000000000000,  0.500000000000000 ]
    mass: 15.999400
    reduced_to: 109
  - symbol: O # 123
    coordinates: [  0.833333333333333,  0.500000000000000,  0.500000000000000 ]
    mass: 15.999400
    reduced_to: 109
  - symbol: O # 124
    coordinates: [  0.166666666666667,  0.833333333333333,  0.500000000000000 ]
    mass: 15.999400
    reduced_to: 109
  - symbol: O # 125
    coordinates: [  0.500000000000000,  0.833333333333333,  0.500000000000000 ]
    mass: 15.999400
    reduced_to: 109
  - symbol: O # 126
    coordinates: [  0.833333333333333,  0.833333333333333,  0.500000000000000 ]
    mass: 15.999400
    reduced_to: 109
  - symbol: O # 127
    coordinates: [  0.166666666666667,  0.166666666666667,  0.833333333333333 ]
    mass: 15.999400
    reduced_to: 109
  - symbol: O # 128
    coordinates: [  0.500000000000000,  0.166666666666667,  0.833333333333333 ]
    mass: 15.999400
    reduced_to: 109
  - symbol: O # 129
    coordinates: [  0.833333333333333,  0.166666666666667,  0.833333333333333 ]
    mass: 15.999400
    reduced_to: 109
  - symbol: O # 130
    coordinates: [  0.166666666666667,  0.500000000000000,  0.833333333333333 ]
    mass: 15.999400
    reduced_to: 109
  - symbol: O # 131
    coordinates: [  0.500000000000000,  0.500000000000000,  0.833333333333333 ]
    mass: 15.999400
    reduced_to: 109
  - symbol: O # 132
    coordinates: [  0.833333333333333,  0.500000000000000,  0.833333333333333 ]
    mass: 15.999400
    reduced_to: 109
  - symbol: O # 133
    coordinates: [  0.166666666666667,  0.833333333333333,  0.833333333333333 ]
    mass: 15.999400
    reduced_to: 109
  - symbol: O # 134
    coordinates: [  0.500000000000000,  0.833333333333333,  0.833333333333333 ]
    mass: 15.999400
    reduced_to: 109
  - symbol: O # 135
    coordinates: [  0.833333333333333,  0.833333333333333,  0.833333333333333 ]
    mass: 15.999400
    reduced_to: 109
  - symbol: O # 136
    coordinates: [  0.000000000000000,  0.000000000000000,  0.000000000000000 ]
    mass: 15.999400
    reduced_to: 136
  - symbol: O # 137
    coordinates: [  0.333333333333333,  0.000000000000000,  0.000000000000000 ]
    mass: 15.999400
    reduced_to: 136
  - symbol: O # 138
    coordinates: [  0.666666666666667,  0.000000000000000,  0.000000000000000 ]
    mass: 15.999400
    reduced_to: 136
  - symbol: O # 139
    coordinates: [  0.000000000000000,  0.333333333333333,  0.000000000000000 ]
    mass: 15.999400
    reduced_to: 136
  - symbol: O # 140
    coordinates: [  0.333333333333333,  0.333333333333333,  0.000000000000000 ]
    mass: 15.999400
    reduced_to: 136
  - symbol: O # 141
    coordinates: [  0.666666666666667,  0.333333333333333,  0.000000000000000 ]
    mass: 15.999400
    reduced_to: 136
  - symbol: O # 142
    coordinates: [  0.000000000000000,  0.666666666666667,  0.000000000000000 ]
    mass: 15.999400
    reduced_to: 136
  - symbol: O # 143
    coordinates: [  0.333333333333333,  0.666666666666667,  0.000000000000000 ]
    mass: 15.999400
    reduced_to: 136
  - symbol: O # 144
    coordinates: [  0.666666666666667,  0.666666666666667,  0.000000000000000 ]
    mass: 15.999400
    reduced_to: 136
  - symbol: O # 145
    coordinates: [  0.000000000000000,  0.000000000000000,  0.333333333333333 ]
    mass: 15.999400
    reduced_to: 136
  - symbol: O # 146
    coordinates: [  0.333333333333333,  0.000000000000000,  0.333333333333333 ]
    mass: 15.999400
    reduced_to: 136
  - symbol: O # 147
    coordinates: [  0.666666666666667,  0.000000000000000,  0.333333333333333 ]
    mass: 15.999400
    reduced_to: 136
  - symbol: O # 148
    coordinates: [  0.000000000000000,  0.333333333333333,  0.333333333333333 ]
    mass: 15.999400
    reduced_to: 136
  - symbol: O # 149
    coordinates: [  0.333333333333333,  0.333333333333333,  0.333333333333333 ]
    mass: 15.999400
    reduced_to: 136
  - symbol: O # 150
    coordinates: [  0.666666666666667,  0.333333333333333,  0.333333333333333 ]
    mass: 15.999400
    reduced_to: 136
  - symbol: O # 151
    coordinates: [  0.000000000000000,  0.666666666666667,  0.333333333333333 ]
    mass: 15.999400
    reduced_to: 136
  - symbol: O # 152
    coordinates: [  0.333333333333333,  0.666666666666667,  0.333333333333333 ]
    mass: 15.999400
    reduced_to: 136
  - symbol: O # 153
    coordinates: [  0.666666666666667,  0.666666666666667,  0.333333333333333 ]
    mass: 15.999400
    reduced_to: 136
  - symbol: O # 154
    coordinates: [  0.000000000000000,  0.000000000000000,  0.666666666666667 ]
    mass: 15.999400
    reduced_to: 136
  - symbol: O # 155
    coordinates: [  0.333333333333333,  0.000000000000000,  0.666666666666667 ]
    mass: 15.999400
    reduced_to: 136
  - symbol: O # 156
    coordinates: [  0.666666666666667,  0.000000000000000,  0.666666666666667 ]
    mass: 15.999400
    reduced_to: 136
  - symbol: O # 157
    coordinates: [  0.000000000000000,  0.333333333333333,  0.666666666666667 ]
    mass: 15.999400
    reduced_to: 136
  - symbol: O # 158
    coordinates: [  0.333333333333333,  0.333333333333333,  0.666666666666667 ]
    mass: 15.999400
    reduced_to: 136
  - symbol: O # 159
    coordinates: [  0.666666666666667,  0.333333333333333,  0.666666666666667 ]
    mass: 15.999400
    reduced_to: 136
  - symbol: O # 160
    coordinates: [  0.000000000000000,  0.666666666666667,  0.666666666666667 ]
    mass: 15.999400
    reduced_to: 136
  - symbol: O # 161
    coordinates: [  0.333333333333333,  0.666666666666667,  0.666666666666667 ]
    mass: 15.999400
    reduced_to: 136
  - symbol: O # 162
    coordinates: [  0.666666666666667,  0.666666666666667,  0.666666666666667 ]
    mass: 15.999400
    reduced_to: 136

displacements:
- atom:    1
  displacement:
    [   0.0100000000000000,  0.0000000000000000,  0.0000000000000000 ]
- atom:  109
  displacement:
    [   0.0100000000000000,  0.0000000000000000,  0.0000000000000000 ]
