 108  108
1 1
    19.068610514425650     0.000000000000000     0.000000000000000
    -0.000000000000001    19.068610514425657    -0.000000000000001
    -0.000000000000002     0.000000000000001    19.071336205332535
1 2
    -2.246447273314871    -1.722072751511982    -2.435506579929635
    -1.722072410777816    -0.257969084342276    -1.406140379535480
    -2.435495074241129    -1.406133818773340    -1.250742889706775
1 3
    -2.246447234017546    -1.722072433466137    -2.435506579929635
    -1.722072774200303    -0.257969123639600    -1.406140379535480
    -2.435495145298701    -1.406133695698015    -1.250742889706775
1 4
    -2.246447234017547     1.722072433466137     2.435506579929635
     1.722072774200303    -0.257969123639600    -1.406140379535480
     2.435495145298702    -1.406133695698015    -1.250742889706776
1 5
     0.308469116664373     0.000000102156452    -0.000000000000000
     0.000000309253730    -0.175550899318061    -0.588349221686265
    -0.000000192598105    -0.588331281260044    -0.590010653351297
1 6
    -1.007660619227959    -0.000000000000000     0.000000000000000
     0.000000000000000     0.263133173039427     0.032116077945673
     0.000000000000000     0.032111342885200     0.287472108212800
1 7
    -2.246447273314871     1.722072751511982     2.435506579929635
     1.722072410777816    -0.257969084342276    -1.406140379535480
     2.435495074241129    -1.406133818773341    -1.250742889706776
1 8
    -1.007661229820756    -0.000000000000000     0.000000000000000
     0.000000000000000     0.263132530467006     0.032116077945673
     0.000000000000000     0.032111869258051     0.287472108212800
1 9
     0.308469116664373    -0.000000102156452    -0.000000000000000
    -0.000000309253730    -0.175550899318061    -0.588349221686265
     0.000000192598105    -0.588331281260044    -0.590010653351297
1 10
     0.736269970846697    -0.000000193055404    -0.000000000000000
     0.000000147678762    -3.240686328503845     2.812280759070959
    -0.000000071057572     2.812267514471356    -1.250742889706775
1 11
    -0.054546073468286     0.209586608489285    -0.509525372277108
     0.209586815586563     0.187464290814599     0.294174610843132
    -0.509509739113193     0.294165807424873    -0.590010653351297
1 12
    -0.054565909604935    -0.550269839689977     0.027813339370874
    -0.550269839689977    -0.689962789748816    -0.016058038972837
     0.027809694540476    -0.016055934629025     0.287472108212800
1 13
    -0.054545717176618    -0.209587021291653     0.509525372277108
    -0.209586814194376     0.187463934522931     0.294174610843133
     0.509509931711298     0.294165473835171    -0.590010653351297
1 14
     0.006909976385592     0.000000419883307    -0.000000000000000
    -0.000000419883307     0.006909976385592     0.000000000000000
     0.000000000000000     0.000000000000000    -0.377805202183165
1 15
    -0.250628381377881    -0.148732227694954     0.105184536118743
    -0.148732263450453    -0.078886703825736     0.060728320242742
     0.105169940268415     0.060719989634967    -0.034343381946315
1 16
    -0.054565275027419     0.550269853537561    -0.027813339370874
     0.550269853537561    -0.689962171161113    -0.016058038972837
    -0.027809238688216    -0.016055671442600     0.287472108212800
1 17
    -0.250628026241639     0.148732468488458    -0.105184536118743
     0.148732432732959    -0.078887058961978     0.060728320242742
    -0.105170023675617     0.060719845169456    -0.034343381946315
1 18
     0.006983779814095     0.000000187160256     0.000000000000000
     0.000000222915755    -0.336498865017711    -0.121456640485484
    -0.000000083407202    -0.121439834804423    -0.034343381946315
1 19
     0.736269970846697     0.000000193055404    -0.000000000000000
    -0.000000147678762    -3.240686328503845     2.812280759070959
     0.000000071057572     2.812267514471356    -1.250742889706775
1 20
    -0.054565275027419    -0.550269853537561     0.027813339370874
    -0.550269853537561    -0.689962171161113    -0.016058038972837
     0.027809238688216    -0.016055671442600     0.287472108212800
1 21
    -0.054545717176618     0.209587021291653    -0.509525372277108
     0.209586814194376     0.187463934522931     0.294174610843132
    -0.509509931711298     0.294165473835171    -0.590010653351297
1 22
    -0.054565909604935     0.550269839689977    -0.027813339370874
     0.550269839689977    -0.689962789748816    -0.016058038972837
    -0.027809694540476    -0.016055934629025     0.287472108212800
1 23
     0.006983779814095    -0.000000187160256     0.000000000000000
    -0.000000222915755    -0.336498865017711    -0.121456640485484
     0.000000083407202    -0.121439834804423    -0.034343381946315
1 24
    -0.250628381377881     0.148732227694954    -0.105184536118743
     0.148732263450453    -0.078886703825736     0.060728320242742
    -0.105169940268415     0.060719989634967    -0.034343381946315
1 25
    -0.054546073468286    -0.209586608489285     0.509525372277108
    -0.209586815586563     0.187464290814599     0.294174610843132
     0.509509739113194     0.294165807424873    -0.590010653351297
1 26
    -0.250628026241639    -0.148732468488458     0.105184536118743
    -0.148732432732959    -0.078887058961978     0.060728320242742
     0.105170023675617     0.060719845169456    -0.034343381946315
1 27
     0.006909976385592    -0.000000419883307     0.000000000000000
     0.000000419883307     0.006909976385592     0.000000000000000
     0.000000000000000     0.000000000000000    -0.377805202183165
1 28
    -0.372254719923203    -0.371225345434058    -0.524116706837164
     0.022541485052390     0.125535609011507     0.308460625506879
     0.032691367274837     0.308419078665812     0.342774213608432
1 29
     0.231558122012442     0.109175665821598     0.155295711610263
     0.109171746039237     0.056032380365008     0.124622442237549
     0.155216261424020     0.124581182778276     0.143262061627868
1 30
     0.561063487517160     0.022527388085301     0.032762442864251
    -0.371254155778597    -0.185570076581923    -0.131505187964297
    -0.524245976863879    -0.131547454830604    -0.279482073003742
1 31
     0.561063624414657     0.022527494632120     0.032762442864251
    -0.371254039464966    -0.185569869638450    -0.131505187964297
    -0.524246072841023    -0.131547256597098    -0.279482073003742
1 32
     0.231558251000700     0.109175677179584     0.155295711610263
     0.109172102894792     0.056032242676985     0.124622442237549
     0.155216538493840     0.124581427763193     0.143262061627868
1 33
    -0.372254923063149    -0.371226084360861    -0.524116706837164
     0.022541805203417     0.125535923254553     0.308460625506879
     0.032691583830999     0.308419193122029     0.342774213608432
1 34
    -3.046724167461295    -1.237702318737480    -1.749522934340622
    -1.237701942914758    -1.617549279317670    -1.010087537094982
    -1.749604983303287    -1.010134926264118    -2.332761777122545
1 35
     0.998001517545469     0.626776531454398     0.887325677506959
     0.626776531454398     0.274262319231596     0.512297718767510
     0.887255863224836     0.512257411472933     0.635667213876252
1 36
    -3.046724488967126    -1.237701757293281    -1.749522934340622
    -1.237702133116003    -1.617548957811839    -1.010087537094982
    -1.749604999046290    -1.010134898996436    -2.332761777122545
1 37
    -0.093413846418005    -0.042444682800878    -0.111998303980177
    -0.042444331216582    -0.044402951568725    -0.064662250951737
     0.009676009043902     0.005586211635452     0.136959578202912
1 38
     0.096748364807819     0.055201572712680     0.059367674888585
     0.055201811618247     0.033006896125762     0.034275943078087
     0.059273147113497     0.034221276409360     0.080337972430077
1 39
     0.048565118568551     0.039514953774944    -0.048215751586106
     0.039515849103228     0.002936376778668    -0.027837377157418
    -0.170056262738309    -0.098181832186181    -0.052296785240948
1 40
     0.048571180943116    -0.059457781366754     0.021786944954199
    -0.174266861341094    -0.005775296805074    -0.101213390775489
    -0.018879374615964    -0.030962042904516    -0.043597781988484
1 41
     0.096764712293960     0.036734594334964     0.072444367402233
     0.036734594334964     0.054347256438234     0.041825775020951
     0.072362707710189     0.041778628775768     0.059019280271424
1 42
    -0.093394416405745    -0.092302985496063    -0.076759895137635
     0.022506094478277     0.136190300543787     0.069474743188934
    -0.036253603016356    -0.000868996572730    -0.043597781988484
1 43
    -0.149896510150178    -0.105836884348465     0.005076384337613
    -0.499604773912743    -0.096822489658418    -0.608128695422265
     0.283444648173876    -0.125897854473421     0.342774213608432
1 44
     0.194461106960087     0.130590148992806     0.185574056664508
     0.130593723277598     0.093129386717597     0.072178810234495
     0.185498950529581     0.072130751541554     0.143262061627868
1 45
    -0.149914519524782     0.039229383326409    -0.097505612074404
     0.433010917423496     0.525408274300989     0.094125701792626
    -0.376046302431749    -0.388236788616004    -0.279482073003742
1 46
    -0.093394148715009    -0.092302106223016    -0.076759895137635
     0.022506591219388     0.136189999539255     0.069474743188934
    -0.036253602179826    -0.000868879913112    -0.043597781988484
1 47
     0.096764102403311     0.036734471725497     0.072444367402233
     0.036734471725497     0.054346788124801     0.041825775020951
     0.072363132727103     0.041778874159398     0.059019280271424
1 48
     0.048571617944009    -0.059457382376908     0.021786944954199
    -0.174266079819312    -0.005775767119763    -0.101213390775489
    -0.018879273167506    -0.030962100509868    -0.043597781988484
1 49
     0.048564903713127     0.039515973150065    -0.048215751586106
     0.039515077821780     0.002936591634091    -0.027837377157418
    -0.170056092232488    -0.098182127510926    -0.052296785240948
1 50
     0.096748331043456     0.055201831112111     0.059367674888585
     0.055201592206544     0.033006929890125     0.034275943078087
     0.059273068277184     0.034221412957861     0.080337972430077
1 51
    -0.093413696601712    -0.042444417713059    -0.111998303980177
    -0.042444769297355    -0.044403101385019    -0.064662250951737
     0.009675805709168     0.005586563821541     0.136959578202912
1 52
    -0.149914805458166     0.039229353058688    -0.097505612074404
     0.433010896922586     0.525408216393404     0.094125701792626
    -0.376046426118429    -0.388236606380606    -0.279482073003742
1 53
     0.194461018537899     0.130589768716419     0.185574056664508
     0.130593688498780     0.093129483839550     0.072178810234495
     0.185498599831510     0.072130634084510     0.143262061627868
1 54
    -0.149896513712246    -0.105837085160028     0.005076384337613
    -0.499603915646477    -0.096822597199449    -0.608128695422265
     0.283444440773803    -0.125897984788450     0.342774213608432
1 55
     0.152072567267906    -0.325261985455642     0.529193091174777
     0.068504845030806    -0.398791678179601     0.299668069915386
     0.250753073498966    -0.182521093877362     0.342774213608432
1 56
     0.152091527274436     0.607374189839919    -0.130268054938655
     0.213592655742832     0.223402227501771     0.037379486171671
     0.148199770409274     0.519784045213102    -0.279482073003742
1 57
    -0.902961513740026    -0.000000002289883    -0.000000000000000
     0.000000373532839    -3.761311933038941     2.020175074189965
    -0.000000015743004     2.020269825260554    -2.332761777122545
1 58
    -0.019897653960379    -0.000000262288625     0.000000000000000
     0.000000089295670    -0.117919144026352     0.129324501903474
    -0.000000203334733    -0.011172775456993     0.136959578202912
1 59
     0.109017061669692     0.139368415832201    -0.098546840091834
     0.024559335857861    -0.066221177531650     0.031738647586555
    -0.017374228400393     0.031831039477246    -0.043597781988484
1 60
     0.152072933500433     0.325262634334021    -0.529193091174777
    -0.068505255230257    -0.398791933309030     0.299668069915386
    -0.250753064342877    -0.182521338648609     0.342774213608432
1 61
     0.109016307007369    -0.139368322317498     0.098546840091834
    -0.024559624875094    -0.066220456183123     0.031738647586555
     0.017374329012320     0.031830980422980    -0.043597781988484
1 62
    -0.019877779260850     0.000000323617306    -0.000000000000000
    -0.000000571710979     0.071379274608069     0.055674754314837
    -0.000000170505821     0.196363959697107    -0.052296785240948
1 63
     0.152091434343863    -0.607374280769235     0.130268054938655
    -0.213592736905337     0.223401976591375     0.037379486171671
    -0.148199550745450     0.519784061211210    -0.279482073003742
1 64
     0.005366613015833     0.021419982568363     0.030278345054245
     0.021416062786002     0.282223889361617    -0.196801252472045
     0.030282338407489    -0.196711816862786     0.143262061627868
1 65
     0.005366382555740     0.021419833240410     0.030278345054245
     0.021416258955618     0.282224111121945    -0.196801252472045
     0.030282412035741    -0.196712179304747     0.143262061627868
1 66
    -0.087607279925340    -0.000000000000000     0.000000000000000
    -0.000000000000000     1.359871116702406    -1.024595437535020
     0.000000000000000    -1.024514822945866     0.635667213876252
1 67
     0.001136195549096    -0.000000099958919     0.000000000000000
     0.000000138946648     0.128619065384485    -0.068551886156173
    -0.000000078836314    -0.068442689367221     0.080337972430077
1 68
     0.033138528510371    -0.000000000000000     0.000000000000000
    -0.000000000000000     0.117973440221824    -0.083651550041903
    -0.000000000000000    -0.083557257551536     0.059019280271424
1 69
     0.005366382555740    -0.021419833240410    -0.030278345054245
    -0.021416258955618     0.282224111121945    -0.196801252472045
    -0.030282412035741    -0.196712179304747     0.143262061627868
1 70
     0.033138130985547    -0.000000000000000     0.000000000000000
    -0.000000000000000     0.117972759542565    -0.083651550041903
    -0.000000000000000    -0.083557748318796     0.059019280271424
1 71
     0.001136195549096     0.000000099958919     0.000000000000000
    -0.000000138946648     0.128619065384485    -0.068551886156173
     0.000000078836314    -0.068442689367221     0.080337972430077
1 72
     0.005366613015833    -0.021419982568363    -0.030278345054245
    -0.021416062786002     0.282223889361617    -0.196801252472045
    -0.030282338407489    -0.196711816862786     0.143262061627868
1 73
     0.152091434343863     0.607374280769235    -0.130268054938655
     0.213592736905337     0.223401976591375     0.037379486171671
     0.148199550745450     0.519784061211210    -0.279482073003742
1 74
     0.152072933500433    -0.325262634334021     0.529193091174777
     0.068505255230257    -0.398791933309029     0.299668069915386
     0.250753064342877    -0.182521338648609     0.342774213608432
1 75
    -0.902961513740026     0.000000002289883     0.000000000000000
    -0.000000373532839    -3.761311933038941     2.020175074189965
     0.000000015743004     2.020269825260554    -2.332761777122545
1 76
    -0.019877779260850    -0.000000323617306    -0.000000000000000
     0.000000571710979     0.071379274608069     0.055674754314837
     0.000000170505821     0.196363959697107    -0.052296785240948
1 77
     0.109017061669692    -0.139368415832201     0.098546840091834
    -0.024559335857861    -0.066221177531650     0.031738647586555
     0.017374228400392     0.031831039477246    -0.043597781988484
1 78
     0.152091527274436    -0.607374189839919     0.130268054938655
    -0.213592655742832     0.223402227501771     0.037379486171671
    -0.148199770409274     0.519784045213102    -0.279482073003742
1 79
     0.109016307007369     0.139368322317498    -0.098546840091834
     0.024559624875094    -0.066220456183123     0.031738647586555
    -0.017374329012320     0.031830980422980    -0.043597781988484
1 80
    -0.019897653960379     0.000000262288625    -0.000000000000000
    -0.000000089295670    -0.117919144026352     0.129324501903474
     0.000000203334733    -0.011172775456993     0.136959578202912
1 81
     0.152072567267906     0.325261985455642    -0.529193091174777
    -0.068504845030806    -0.398791678179601     0.299668069915386
    -0.250753073498966    -0.182521093877362     0.342774213608432
1 82
    -0.149896513712246     0.105837085160028    -0.005076384337613
     0.499603915646477    -0.096822597199449    -0.608128695422265
    -0.283444440773803    -0.125897984788450     0.342774213608432
1 83
    -0.093413696601712     0.042444417713059     0.111998303980177
     0.042444769297355    -0.044403101385019    -0.064662250951737
    -0.009675805709168     0.005586563821541     0.136959578202912
1 84
     0.048571617944009     0.059457382376908    -0.021786944954199
     0.174266079819312    -0.005775767119763    -0.101213390775489
     0.018879273167506    -0.030962100509868    -0.043597781988484
1 85
     0.194461018537899    -0.130589768716419    -0.185574056664508
    -0.130593688498780     0.093129483839550     0.072178810234495
    -0.185498599831510     0.072130634084510     0.143262061627868
1 86
     0.096748331043456    -0.055201831112111    -0.059367674888585
    -0.055201592206544     0.033006929890125     0.034275943078087
    -0.059273068277184     0.034221412957861     0.080337972430077
1 87
     0.096764102403311    -0.036734471725497    -0.072444367402233
    -0.036734471725497     0.054346788124801     0.041825775020951
    -0.072363132727103     0.041778874159398     0.059019280271424
1 88
    -0.149914805458166    -0.039229353058688     0.097505612074404
    -0.433010896922586     0.525408216393404     0.094125701792626
     0.376046426118429    -0.388236606380606    -0.279482073003742
1 89
     0.048564903713127    -0.039515973150065     0.048215751586106
    -0.039515077821780     0.002936591634091    -0.027837377157418
     0.170056092232488    -0.098182127510926    -0.052296785240948
1 90
    -0.093394148715009     0.092302106223016     0.076759895137635
    -0.022506591219388     0.136189999539255     0.069474743188934
     0.036253602179826    -0.000868879913112    -0.043597781988484
1 91
    -0.149914519524782    -0.039229383326409     0.097505612074404
    -0.433010917423496     0.525408274300989     0.094125701792626
     0.376046302431749    -0.388236788616004    -0.279482073003742
1 92
    -0.093394416405745     0.092302985496063     0.076759895137635
    -0.022506094478277     0.136190300543787     0.069474743188934
     0.036253603016356    -0.000868996572730    -0.043597781988484
1 93
     0.048565118568551    -0.039514953774944     0.048215751586106
    -0.039515849103228     0.002936376778668    -0.027837377157418
     0.170056262738309    -0.098181832186181    -0.052296785240948
1 94
     0.194461106960087    -0.130590148992806    -0.185574056664508
    -0.130593723277598     0.093129386717598     0.072178810234495
    -0.185498950529581     0.072130751541554     0.143262061627868
1 95
     0.096764712293960    -0.036734594334964    -0.072444367402233
    -0.036734594334964     0.054347256438234     0.041825775020951
    -0.072362707710189     0.041778628775768     0.059019280271424
1 96
     0.096748364807819    -0.055201572712680    -0.059367674888585
    -0.055201811618247     0.033006896125762     0.034275943078087
    -0.059273147113497     0.034221276409360     0.080337972430077
1 97
    -0.149896510150178     0.105836884348465    -0.005076384337613
     0.499604773912743    -0.096822489658418    -0.608128695422265
    -0.283444648173876    -0.125897854473421     0.342774213608432
1 98
     0.048571180943116     0.059457781366754    -0.021786944954199
     0.174266861341094    -0.005775296805074    -0.101213390775489
     0.018879374615964    -0.030962042904516    -0.043597781988484
1 99
    -0.093413846418005     0.042444682800878     0.111998303980177
     0.042444331216582    -0.044402951568725    -0.064662250951737
    -0.009676009043902     0.005586211635452     0.136959578202912
1 100
    -3.046724488967126     1.237701757293281     1.749522934340622
     1.237702133116003    -1.617548957811839    -1.010087537094982
     1.749604999046291    -1.010134898996436    -2.332761777122546
1 101
    -0.372254923063149     0.371226084360861     0.524116706837164
    -0.022541805203417     0.125535923254553     0.308460625506879
    -0.032691583830999     0.308419193122029     0.342774213608432
1 102
     0.561063487517160    -0.022527388085301    -0.032762442864251
     0.371254155778597    -0.185570076581923    -0.131505187964297
     0.524245976863879    -0.131547454830604    -0.279482073003742
1 103
     0.998001517545469    -0.626776531454398    -0.887325677506959
    -0.626776531454398     0.274262319231596     0.512297718767510
    -0.887255863224836     0.512257411472933     0.635667213876252
1 104
     0.231558251000700    -0.109175677179584    -0.155295711610263
    -0.109172102894792     0.056032242676985     0.124622442237549
    -0.155216538493840     0.124581427763193     0.143262061627868
1 105
     0.231558122012442    -0.109175665821598    -0.155295711610263
    -0.109171746039237     0.056032380365008     0.124622442237549
    -0.155216261424020     0.124581182778276     0.143262061627868
1 106
    -3.046724167461296     1.237702318737480     1.749522934340622
     1.237701942914759    -1.617549279317670    -1.010087537094982
     1.749604983303287    -1.010134926264118    -2.332761777122546
1 107
     0.561063624414657    -0.022527494632120    -0.032762442864251
     0.371254039464966    -0.185569869638450    -0.131505187964297
     0.524246072841022    -0.131547256597098    -0.279482073003742
1 108
    -0.372254719923203     0.371225345434058     0.524116706837164
    -0.022541485052390     0.125535609011507     0.308460625506879
    -0.032691367274837     0.308419078665812     0.342774213608432
2 1
    -2.246447234017548    -1.722072433466137    -2.435506579929636
    -1.722072774200303    -0.257969123639601    -1.406140379535480
    -2.435495145298701    -1.406133695698015    -1.250742889706776
2 2
    19.068610514425657     0.000000000000005     0.000000000000002
     0.000000000000005    19.068610514425650     0.000000000000002
     0.000000000000001    -0.000000000000001    19.071336205332535
2 3
    -2.246447273314872    -1.722072751511983    -2.435506579929635
    -1.722072410777817    -0.257969084342277    -1.406140379535480
    -2.435495074241130    -1.406133818773341    -1.250742889706776
2 4
    -1.007660619227959     0.000000000000000    -0.000000000000000
    -0.000000000000000     0.263133173039427     0.032116077945673
    -0.000000000000000     0.032111342885200     0.287472108212800
2 5
    -2.246447234017547     1.722072433466137     2.435506579929635
     1.722072774200302    -0.257969123639600    -1.406140379535479
     2.435495145298701    -1.406133695698015    -1.250742889706775
2 6
     0.308469116664373     0.000000102156452    -0.000000000000000
     0.000000309253730    -0.175550899318061    -0.588349221686265
    -0.000000192598105    -0.588331281260044    -0.590010653351297
2 7
     0.308469116664373    -0.000000102156452    -0.000000000000000
    -0.000000309253730    -0.175550899318061    -0.588349221686265
     0.000000192598104    -0.588331281260044    -0.590010653351297
2 8
    -2.246447273314870     1.722072751511982     2.435506579929635
     1.722072410777816    -0.257969084342276    -1.406140379535479
     2.435495074241129    -1.406133818773340    -1.250742889706775
2 9
    -1.007661229820756     0.000000000000000    -0.000000000000000
     0.000000000000000     0.263132530467006     0.032116077945673
    -0.000000000000000     0.032111869258050     0.287472108212800
2 10
    -0.054565909604935    -0.550269839689977     0.027813339370874
    -0.550269839689977    -0.689962789748816    -0.016058038972837
     0.027809694540476    -0.016055934629025     0.287472108212800
2 11
     0.736269970846697    -0.000000193055404     0.000000000000001
     0.000000147678762    -3.240686328503843     2.812280759070958
    -0.000000071057572     2.812267514471356    -1.250742889706775
2 12
    -0.054546073468286     0.209586608489285    -0.509525372277108
     0.209586815586563     0.187464290814599     0.294174610843132
    -0.509509739113194     0.294165807424873    -0.590010653351297
2 13
    -0.250628381377881    -0.148732227694954     0.105184536118743
    -0.148732263450453    -0.078886703825736     0.060728320242742
     0.105169940268415     0.060719989634967    -0.034343381946315
2 14
    -0.054545717176618    -0.209587021291653     0.509525372277108
    -0.209586814194375     0.187463934522931     0.294174610843132
     0.509509931711298     0.294165473835171    -0.590010653351297
2 15
     0.006909976385592     0.000000419883307    -0.000000000000000
    -0.000000419883307     0.006909976385592    -0.000000000000000
    -0.000000000000000    -0.000000000000000    -0.377805202183165
2 16
     0.006983779814095     0.000000187160255    -0.000000000000000
     0.000000222915754    -0.336498865017711    -0.121456640485484
    -0.000000083407202    -0.121439834804423    -0.034343381946315
2 17
    -0.054565275027419     0.550269853537561    -0.027813339370874
     0.550269853537561    -0.689962171161112    -0.016058038972837
    -0.027809238688216    -0.016055671442600     0.287472108212800
2 18
    -0.250628026241639     0.148732468488458    -0.105184536118743
     0.148732432732959    -0.078887058961978     0.060728320242742
    -0.105170023675617     0.060719845169456    -0.034343381946315
2 19
    -0.054545717176618     0.209587021291653    -0.509525372277108
     0.209586814194375     0.187463934522931     0.294174610843132
    -0.509509931711298     0.294165473835171    -0.590010653351297
2 20
     0.736269970846697     0.000000193055404     0.000000000000001
    -0.000000147678762    -3.240686328503843     2.812280759070958
     0.000000071057573     2.812267514471355    -1.250742889706775
2 21
    -0.054565275027420    -0.550269853537561     0.027813339370874
    -0.550269853537561    -0.689962171161113    -0.016058038972837
     0.027809238688216    -0.016055671442600     0.287472108212800
2 22
    -0.250628381377881     0.148732227694954    -0.105184536118743
     0.148732263450453    -0.078886703825735     0.060728320242742
    -0.105169940268415     0.060719989634967    -0.034343381946315
2 23
    -0.054565909604935     0.550269839689977    -0.027813339370874
     0.550269839689977    -0.689962789748815    -0.016058038972837
    -0.027809694540476    -0.016055934629025     0.287472108212800
2 24
     0.006983779814095    -0.000000187160256    -0.000000000000000
    -0.000000222915755    -0.336498865017711    -0.121456640485484
     0.000000083407202    -0.121439834804423    -0.034343381946315
2 25
     0.006909976385592    -0.000000419883307    -0.000000000000000
     0.000000419883307     0.006909976385592    -0.000000000000000
    -0.000000000000000    -0.000000000000000    -0.377805202183165
2 26
    -0.054546073468286    -0.209586608489285     0.509525372277108
    -0.209586815586563     0.187464290814599     0.294174610843132
     0.509509739113193     0.294165807424873    -0.590010653351297
2 27
    -0.250628026241639    -0.148732468488458     0.105184536118743
    -0.148732432732959    -0.078887058961978     0.060728320242742
     0.105170023675617     0.060719845169456    -0.034343381946315
2 28
     0.561063487517160     0.022527388085301     0.032762442864251
    -0.371254155778597    -0.185570076581923    -0.131505187964297
    -0.524245976863879    -0.131547454830604    -0.279482073003742
2 29
    -0.372254719923203    -0.371225345434058    -0.524116706837164
     0.022541485052390     0.125535609011507     0.308460625506879
     0.032691367274837     0.308419078665812     0.342774213608432
2 30
     0.231558122012442     0.109175665821598     0.155295711610263
     0.109171746039237     0.056032380365008     0.124622442237549
     0.155216261424020     0.124581182778276     0.143262061627868
2 31
    -0.372254923063149    -0.371226084360861    -0.524116706837164
     0.022541805203417     0.125535923254553     0.308460625506879
     0.032691583830999     0.308419193122029     0.342774213608432
2 32
     0.561063624414657     0.022527494632120     0.032762442864251
    -0.371254039464966    -0.185569869638450    -0.131505187964297
    -0.524246072841023    -0.131547256597098    -0.279482073003742
2 33
     0.231558251000700     0.109175677179584     0.155295711610263
     0.109172102894792     0.056032242676985     0.124622442237549
     0.155216538493840     0.124581427763193     0.143262061627868
2 34
    -3.046724488967127    -1.237701757293282    -1.749522934340623
    -1.237702133116003    -1.617548957811839    -1.010087537094983
    -1.749604999046291    -1.010134898996436    -2.332761777122546
2 35
    -3.046724167461297    -1.237702318737481    -1.749522934340623
    -1.237701942914760    -1.617549279317670    -1.010087537094983
    -1.749604983303287    -1.010134926264118    -2.332761777122545
2 36
     0.998001517545470     0.626776531454398     0.887325677506959
     0.626776531454398     0.274262319231596     0.512297718767510
     0.887255863224837     0.512257411472933     0.635667213876252
2 37
     0.048565118568551     0.039514953774944    -0.048215751586106
     0.039515849103228     0.002936376778668    -0.027837377157418
    -0.170056262738309    -0.098181832186181    -0.052296785240948
2 38
    -0.093413846418006    -0.042444682800878    -0.111998303980177