108  
4    

1    
  0.0070709776117696   0.0040824308275890   0.0057736499852177
  -0.1348337200   -0.0778462800   -0.1101112200
   0.0370887400    0.0214132000    0.0302746800
   0.0368642900    0.0212836100    0.0300917900
  -0.0051558000   -0.0030347800   -0.0043016600
  -0.0022086700    0.0041177600    0.0058144400
   0.0071177900   -0.0012438200   -0.0017685500
  -0.0052589200   -0.0029753600   -0.0042175200
   0.0071325100   -0.0012754200   -0.0018132000
  -0.0021536900    0.0041092300    0.0058023800
  -0.0052061000   -0.0029476600   -0.0043016600
   0.0024617500   -0.0039716400    0.0058144400
   0.0024817100    0.0067861000   -0.0017685500
  -0.0016944900   -0.0009783100   -0.0014070200
  -0.0000576000   -0.0000332600    0.0021817200
   0.0017747800    0.0010246700   -0.0007837700
  -0.0017060600   -0.0009711100   -0.0013975400
   0.0017695800   -0.0010887500    0.0006895300
  -0.0000406700    0.0020728900    0.0006987200
  -0.0052062000   -0.0030666800   -0.0042175200
   0.0024617000    0.0068146400   -0.0018132000
   0.0024818500   -0.0039197600    0.0058023800
  -0.0016940300   -0.0009919300   -0.0013975400
  -0.0000580900    0.0020768800    0.0006895300
   0.0017748400   -0.0010716700    0.0006987200
  -0.0017063400   -0.0009851600   -0.0013875300
   0.0017695400    0.0010216500   -0.0008030100
  -0.0000401200   -0.0000231600    0.0021809100
   0.0023684100    0.0003415300    0.0004816400
  -0.0029768100   -0.0017215100   -0.0024360400
   0.0005581700    0.0013479400    0.0019049700
   0.0005921600    0.0013676500    0.0019326900
  -0.0029815800   -0.0017185200   -0.0024319600
   0.0023344500    0.0003219400    0.0004537400
   0.0385250500    0.0222424500    0.0314550300
  -0.0147383200   -0.0085091800   -0.0120358000
   0.0348704700    0.0201324700    0.0284709700
   0.0007836000    0.0004524100    0.0002701200
  -0.0012510300   -0.0007222800   -0.0010243300
   0.0004712200    0.0002720600    0.0007520700
   0.0004829700    0.0006257400    0.0005155900
  -0.0012524600   -0.0007220100   -0.0010237600
   0.0007722600    0.0000980100    0.0005061300
   0.0014799800    0.0018803400    0.0004816400
  -0.0029792800   -0.0017172400   -0.0024360400
   0.0014464300   -0.0001905800    0.0019049700
   0.0007833900    0.0001053900    0.0005155900
  -0.0012515100   -0.0007236500   -0.0010237600
   0.0004710000    0.0006197900    0.0005061300
   0.0004830300    0.0002788700    0.0007609700
  -0.0012523400   -0.0007230400   -0.0010227900
   0.0007722800    0.0004458700    0.0002602000
   0.0014805000   -0.0001710000    0.0019326900
  -0.0029790700   -0.0017228600   -0.0024319600
   0.0014460300    0.0018607300    0.0004537400
  -0.0028110500    0.0049958000   -0.0069644700
  -0.0027946400   -0.0081840800    0.0023756500
   0.0063848200    0.0038485800    0.0051099000
   0.0001437400    0.0005487300   -0.0013212200
  -0.0007701700   -0.0008975800    0.0008144800
   0.0006481300    0.0003743900    0.0005495000
  -0.0007715900    0.0010767500   -0.0005744600
   0.0001376400   -0.0014217900    0.0000730700
   0.0006561400    0.0003696100    0.0005436400
  -0.0002985600   -0.0001668700   -0.0002365000
  -0.0003018700   -0.0001688800   -0.0002391300
   0.0006194700    0.0003636100    0.0005127200
  -0.0000068900   -0.0001298300   -0.0001836100
  -0.0002346400    0.0000001900   -0.0000001900
   0.0002234300    0.0001355000    0.0001911600
  -0.0002340000    0.0000014400    0.0000016800
  -0.0000091800   -0.0001300000   -0.0001843600
   0.0002252200    0.0001345900    0.0001896000
  -0.0028114900   -0.0082315300    0.0023886600
  -0.0027944100    0.0049677500   -0.0069242200
   0.0063848200    0.0035333500    0.0053327500
   0.0001434700   -0.0014284800    0.0000762400
  -0.0007702200    0.0010673100   -0.0005748900
   0.0006482500    0.0003937000    0.0005361800
  -0.0007714400   -0.0009002400    0.0008234600
   0.0001376500    0.0005430800   -0.0013162100
   0.0006561200    0.0003894700    0.0005294600
   0.0006483000    0.0003741000    0.0005495000
   0.0005470800   -0.0001498800   -0.0013212200
  -0.0011624100   -0.0002181900    0.0008144800
   0.0002290600    0.0001257400    0.0001911600
  -0.0001158800    0.0000589500   -0.0001836100
  -0.0001171500   -0.0002033000   -0.0000001900
   0.0006650800    0.0003645500    0.0005361800
  -0.0011653700    0.0008385000    0.0000762400
   0.0005392100   -0.0012006800   -0.0005748900
   0.0006481600    0.0003834300    0.0005436400
   0.0005467000   -0.0012066000   -0.0005744600
  -0.0011624900    0.0008300900    0.0000730700
   0.0002291700    0.0001277500    0.0001896000
  -0.0001157600   -0.0002033700    0.0000016800
  -0.0001171700    0.0000570500   -0.0001843600
   0.0006653500    0.0003734800    0.0005294600
  -0.0011653500   -0.0002179700    0.0008234600
   0.0005391500   -0.0001523300   -0.0013162100
   0.0065253800    0.0036051300    0.0051099000
   0.0029209700   -0.0049323500   -0.0069644700
  -0.0084849400    0.0016718100    0.0023756500
   0.0006246300    0.0003546700    0.0005127200
  -0.0002937900   -0.0001751300   -0.0002365000
  -0.0002971900   -0.0001769900   -0.0002391300
   0.0062523800    0.0037627400    0.0053327500
  -0.0085344600    0.0016809400    0.0023886600
   0.0029049900   -0.0049039000   -0.0069242200

28   
 -0.0070709776117696   0.0040824308275890   0.0057736499852177
   0.0019064700   -0.0021227800   -0.0030010500
   0.0036759800   -0.0011003900   -0.0015573600
   0.0002959800   -0.0001707300   -0.0002415200
  -0.0062351400    0.0037880100    0.0053557400
  -0.0065592600    0.0036008400    0.0050928200
  -0.0006333400    0.0003656700    0.0005161300
   0.0036936000   -0.0011015600   -0.0015589200
   0.0019084100   -0.0021324500   -0.0030163800
   0.0002905100   -0.0001674400   -0.0002362400
   0.0001586600   -0.0007895200   -0.0000037600
   0.0004584300   -0.0006170800    0.0002416800
   0.0001145700   -0.0001968800   -0.0000003300
  -0.0006642500    0.0003792200    0.0005467600
  -0.0006651800    0.0003792600    0.0005449000
  -0.0002362600    0.0001336800    0.0001952300
   0.0004583000    0.0004392000   -0.0005011700
   0.0001553700    0.0002645300   -0.0007481200
   0.0001120800    0.0000670500   -0.0001848300
   0.0001589300    0.0002602800   -0.0007458100
   0.0004582200    0.0004329300   -0.0005008800
   0.0001145100    0.0000651700   -0.0001858600
  -0.0006635900    0.0003884200    0.0005402300
  -0.0006657500    0.0003873600    0.0005386800
  -0.0002365800    0.0001391500    0.0001918600
   0.0004576100   -0.0006193100    0.0002475300
   0.0001557300   -0.0007935200    0.0000005100
   0.0001124900   -0.0001966100    0.0000011900
   0.0135727200   -0.0078064100   -0.0111057600
  -0.0002644800    0.0001558600    0.0001543300
  -0.0002151200    0.0001844300    0.0001947500
  -0.0006930900    0.0004314400    0.0005442700
   0.0002305700    0.0004477700    0.0005671700
  -0.0007218000   -0.0001022500   -0.0002105600
  -0.0006868500    0.0004278800    0.0005389700
  -0.0007165800   -0.0000997600   -0.0002072500
   0.0002266200    0.0004447800    0.0005628800
   0.0001652600   -0.0000637900   -0.0001569700
   0.0000286500    0.0000150600   -0.0000463300
   0.0000290100    0.0000153100   -0.0000460300
  -0.0001040400   -0.0000182600    0.0001407800
   0.0000263900    0.0000723200    0.0001330800
  -0.0001504800   -0.0000299500   -0.0000113800
  -0.0001039900    0.0002006100   -0.0000139300
  -0.0001500600    0.0000620700   -0.0000752500
   0.0000254000    0.0001634100    0.0000679100
   0.0001654500   -0.0000642100   -0.0001570100
   0.0000288000    0.0000140200   -0.0000457300
   0.0000290400    0.0000142000   -0.0000452800
  -0.0001042100    0.0002016500   -0.0000146600
   0.0000262400    0.0001642000    0.0000682300
  -0.0001504800    0.0000620900   -0.0000763600
  -0.0001042800   -0.0000173200    0.0001402500
  -0.0001498800   -0.0000288400   -0.0000106100
   0.0000253100    0.0000722200    0.0001323900
  -0.0002821500    0.0006191600   -0.0002646500
   0.0000133500    0.0001516600   -0.0000576100
  -0.0000869900    0.0007320300   -0.0001054000
   0.0011851000   -0.0006452300   -0.0009380500
   0.0001266800   -0.0000386500   -0.0000616200
   0.0011929400   -0.0006400700   -0.0009321700
  -0.0000869600   -0.0003470900    0.0006594500
   0.0000137600   -0.0001058000    0.0001240000
  -0.0002838300   -0.0004606900    0.0004985600
  -0.0000020700    0.0000146800    0.0000199700
   0.0000337900    0.0000116500    0.0000162100
   0.0000296200    0.0000326300    0.0000460700
   0.0001267400   -0.0000415100   -0.0000593800
   0.0000839900   -0.0000169000   -0.0000248300
   0.0001266800   -0.0000413000   -0.0000593400
   0.0000297900    0.0000328500    0.0000457100
   0.0000341300    0.0000117200    0.0000160800
  -0.0000019500    0.0000144200    0.0000197000
  -0.0002823600   -0.0004561800    0.0004958300
   0.0000132900   -0.0001050500    0.0001239300
  -0.0000870100   -0.0003432900    0.0006550600
   0.0011851600   -0.0006699100   -0.0009210300
   0.0001267500   -0.0000455900   -0.0000567800
   0.0011928600   -0.0006658800   -0.0009134500
  -0.0000870100    0.0007371500   -0.0001071200
   0.0000138800    0.0001519800   -0.0000582500
  -0.0002837900    0.0006233200   -0.0002678900
   0.0001950500   -0.0000039200   -0.0001790900
   0.0000946500   -0.0000620300   -0.0002612500
   0.0000608400   -0.0000793400   -0.0000852200
   0.0000972100   -0.0002905300   -0.0001039200
   0.0001983300   -0.0002318300   -0.0000212600
   0.0000631000   -0.0001173300   -0.0000609800
  -0.0003930000    0.0001641300    0.0002989700
  -0.0003928400    0.0001641500    0.0002990000
  -0.0002157300    0.0000618500    0.0001537500
   0.0001949900   -0.0002300400   -0.0000192500
   0.0000945500   -0.0002880400   -0.0001013400
   0.0000611800   -0.0001165100   -0.0000593000
   0.0000972500   -0.0000635900   -0.0002643600
   0.0001983500   -0.0000051900   -0.0001817500
   0.0000632800   -0.0000807100   -0.0000868100
  -0.0003930400    0.0001648100    0.0002985300
  -0.0003928900    0.0001648000    0.0002985500
  -0.0002160400    0.0000621300    0.0001539800
   0.0013216900    0.0032936900    0.0047248600
  -0.0058129900   -0.0008262500   -0.0011017300
   0.0001584400   -0.0001542100   -0.0001516700
  -0.0059028100   -0.0008459100   -0.0011298200
   0.0013564400    0.0033444000    0.0047963200
   0.0001669100   -0.0001591100   -0.0001583400
  -0.0013472300    0.0007144800    0.0010772000
  -0.0013461900    0.0007151500    0.0010781700
  -0.0004445000    0.0001938000    0.0003407500

28   
  0.0070709776117696  -0.0040824308275890  -0.0057736499852177
  -0.0019080300    0.0021326300    0.0030162100
  -0.0036939300    0.0011017100    0.0015573000
  -0.0002888500    0.0001670900    0.0002361300
   0.0065602600   -0.0035989500   -0.0050911700
   0.0062328600   -0.0037880200   -0.0053573500
   0.0006320300   -0.0003639800   -0.0005154300
  -0.0036763400    0.0011007400    0.0015560100
  -0.0019062300    0.0021223700    0.0030011300
  -0.0002951000    0.0001707300    0.0002414600
  -0.0001549700    0.0007933500   -0.0000006000
  -0.0004577900    0.0006180600   -0.0002477000
  -0.0001114000    0.0001957800   -0.0000014100
   0.0006641300   -0.0003874500   -0.0005380800
   0.0006628500   -0.0003883300   -0.0005389700
   0.0002356900   -0.0001387900   -0.0001899900
  -0.0004581400   -0.0004337900    0.0005005500
  -0.0001584300   -0.0002604700    0.0007457300
  -0.0001140300   -0.0000651000    0.0001856700
  -0.0001548900   -0.0002649000    0.0007478200
  -0.0004578000   -0.0004400400    0.0005005200
  -0.0001115100   -0.0000667500    0.0001842400
   0.0006643200   -0.0003788500   -0.0005441800
   0.0006625700   -0.0003789800   -0.0005460000
   0.0002355700   -0.0001332000   -0.0001937900
  -0.0004587100    0.0006160700   -0.0002419200
  -0.0001583000    0.0007897000    0.0000031800
  -0.0001137000    0.0001966800    0.0000004900
  -0.0136234100    0.0078978100    0.0111040000
   0.0001610100   -0.0000916700   -0.0001956500
   0.0002114200   -0.0000625100   -0.0001544000
   0.0006326400   -0.0003340100   -0.0005379900
  -0.0002815300   -0.0003511700   -0.0005626900
   0.0006621400    0.0001934000    0.0002076400
   0.0006388100   -0.0003374900   -0.0005432700
   0.0006669700    0.0001958000    0.0002109900
  -0.0002855600   -0.0003540600   -0.0005667400
  -0.0002185300    0.0001580700    0.0001564500
  -0.0000827300    0.0000793300    0.0000443100
  -0.0000822400    0.0000795800    0.0000449000
   0.0000498800    0.0001117800   -0.0001398300
  -0.0000801600    0.0000219400   -0.0001323200
   0.0000953800    0.0001230700    0.0000108200
   0.0000499900   -0.0001070800    0.0000151700
   0.0000956800    0.0000321300    0.0000763500
  -0.0000811600   -0.0000699600   -0.0000681100
  -0.0002185000    0.0001576300    0.0001566700
  -0.0000826700    0.0000780900    0.0000451500
  -0.0000822200    0.0000785100    0.0000456300
   0.0000497900   -0.0001062100    0.0000144100
  -0.0000802000   -0.0000693000   -0.0000677900
   0.0000954800    0.0000320900    0.0000753400
   0.0000498800    0.0001127600   -0.0001402400
   0.0000957800    0.0001240100    0.0000116400
  -0.0000811200    0.0000218000   -0.0001329700
   0.0003918700   -0.0006232300    0.0002686100
   0.0000938100   -0.0001518000    0.0000585800
   0.0001950200   -0.0007370700    0.0001075800
  -0.0010840500    0.0006655000    0.0009128400
  -0.0000176500    0.0000447400    0.0000560000
  -0.0010756700    0.0006696200    0.0009207600
   0.0001949300    0.0003433600   -0.0006545400
   0.0000943300    0.0001048700   -0.0001236200
   0.0003904800    0.0004562300   -0.0004950300
   0.0001102000   -0.0000134400   -0.0000196800
   0.0000735400   -0.0000111900   -0.0000162700
   0.0000782100   -0.0000320800   -0.0000455800
  -0.0000175200    0.0000418000    0.0000583100
   0.0000250000    0.0000172600    0.0000233800
  -0.0000175600    0.0000421300    0.0000583700
   0.0000783700   -0.0000319500   -0.0000460300
   0.0000738900   -0.0000112900   -0.0000163100
   0.0001104000   -0.0000136200   -0.0000199900
   0.0003918900    0.0004607200   -0.0004978800
   0.0000937200    0.0001056200   -0.0001233900
   0.0001949200    0.0003470900   -0.0006587500
  -0.0010838100    0.0006387800    0.0009320900
  -0.0000175600    0.0000374400    0.0000611000
  -0.0010756100    0.0006441300    0.0009380600
   0.0001949500   -0.0007319000    0.0001059000
   0.0000943700   -0.0001516600    0.0000578300
   0.0003904800   -0.0006191600    0.0002654200
  -0.0002517900   -0.0000887700    0.0001812000
  -0.0001507200   -0.0000303200    0.0002636900
  -0.0001170600   -0.0000133200    0.0000860100
  -0.0001479300    0.0001942200    0.0001009300
  -0.0002484000    0.0001360400    0.0000185100
  -0.0001146100    0.0000221600    0.0000580800
   0.0003376000   -0.0002575600   -0.0002975000
   0.0003375900   -0.0002575600   -0.0002975000
   0.0001601300   -0.0001550600   -0.0001531800
  -0.0002518400    0.0001379500    0.0000207900
  -0.0001506500    0.0001963500    0.0001034700
  -0.0001168100    0.0000229400    0.0000600600
  -0.0001479000   -0.0000320300    0.0002607000
  -0.0002484900   -0.0000902100    0.0001784600
  -0.0001146800   -0.0000148300    0.0000845500
   0.0003375600   -0.0002569800   -0.0002979700
   0.0003374600   -0.0002570000   -0.0002978800
   0.0001599800   -0.0001550100   -0.0001530300
  -0.0014101600   -0.0034395100   -0.0047979300
   0.0058489100    0.0007517300    0.0011296900
  -0.0002205000    0.0000644700    0.0001576600
   0.0057598500    0.0007315600    0.0011014600
  -0.0013749000   -0.0033875800   -0.0047240300
  -0.0002119300    0.0000595400    0.0001508300
   0.0012910600   -0.0008086600   -0.0010768700
   0.0012917600   -0.0008079500   -0.0010758600
   0.0003885300   -0.0002872000   -0.0003394100

28   
  0.0070709776117696   0.0040824308275890   0.0057736499852177
   0.0071739900   -0.0024535100   -0.0034792100
  -0.0042172900    0.0041627200    0.0058762000
  -0.0029837400   -0.0017094000   -0.0024272400
   0.0349132500    0.0201571800    0.0284980300
   0.0385136800    0.0222358800    0.0314389000
  -0.0147348400   -0.0085071600   -0.0120405800
  -0.0042498300    0.0041421100    0.0058480000
   0.0072089800   -0.0024344500   -0.0034528900
  -0.0029604500   -0.0017225600   -0.0024451400
   0.0014924300   -0.0011133600    0.0005117300
  -0.0002054400    0.0018495000    0.0005193500
  -0.0012461700   -0.0007145400   -0.0010249800
   0.0014622600   -0.0057515200    0.0058480000
   0.0014962000    0.0074603900   -0.0034528900
  -0.0029720100   -0.0017025400   -0.0024451400
  -0.0002176000   -0.0001256300    0.0019076500
   0.0015001900    0.0008661400   -0.0008723400
  -0.0012414500   -0.0007167500   -0.0010286200
   0.0014931300    0.0008620600   -0.0008856900
  -0.0002042500   -0.0001179200    0.0019115100
  -0.0012469100   -0.0007199000   -0.0010218100
   0.0014621900    0.0074396100   -0.0034792100
   0.0014963700   -0.0057336400    0.0058762000
  -0.0029722500   -0.0017292900   -0.0024272400
  -0.0002179800    0.0018491600    0.0005117300
   0.0014989900   -0.0011026700    0.0005193500
  -0.0012418900   -0.0007219500   -0.0010249800
  -0.1188172300   -0.0685991600   -0.0970143300
   0.0184013000    0.0106240000    0.0150241800
   0.0181916000    0.0105029200    0.0148527900
  -0.0031109400   -0.0018022800   -0.0025502300
   0.0011088900    0.0011883900    0.0016793400
   0.0020651800    0.0006470500    0.0009137200
  -0.0031210200   -0.0017959600   -0.0025412600
   0.0020585300    0.0006399400    0.0009039000
   0.0011207500    0.0011921100    0.0016846000
  -0.0031162900   -0.0017930100   -0.0025502300
   0.0015836200    0.0003661300    0.0016793400
   0.0015929500    0.0014649700    0.0009137200
  -0.0011356400   -0.0006556600   -0.0009305000
   0.0004835600    0.0002791800    0.0006085200
   0.0006644200    0.0003836000    0.0003267000
  -0.0011377200   -0.0006551300   -0.0009299100
   0.0006597800    0.0001777300    0.0004653300
   0.0004895300    0.0004848800    0.0004696900
  -0.0031158600   -0.0018049000   -0.0025412600
   0.0015834700    0.0014627700    0.0009039000
   0.0015927700    0.0003745400    0.0016846000
  -0.0011362200   -0.0006577300   -0.0009299100
   0.0004838100    0.0004825200    0.0004653300
   0.0006646800    0.0001815100    0.0004696900
  -0.0011376000   -0.0006567900   -0.0009287300
   0.0006594400    0.0003807300    0.0003214200
   0.0004894900    0.0002826100    0.0006126700
   0.0002854100   -0.0014835000    0.0002681500
   0.0003564100    0.0002067500    0.0002985300
  -0.0006455500    0.0012875500   -0.0005439600
   0.0022140300   -0.0114870200    0.0108461400
   0.0013072800    0.0007421500    0.0010875900
   0.0022402900    0.0139493000   -0.0071089700
  -0.0006461300   -0.0009450300    0.0010291500
   0.0003541000    0.0002083100    0.0003003400
   0.0002901900    0.0007474600   -0.0013080000
   0.0000153300   -0.0001135800   -0.0001610600
   0.0001787000    0.0001083000    0.0001523500
  -0.0002064800    0.0000145600    0.0000199400
  -0.0001966100   -0.0001079100   -0.0001530200
   0.0004058500    0.0002399500    0.0003387000
  -0.0001936700   -0.0001060400   -0.0001508300
  -0.0002058500    0.0000143500    0.0000197100
   0.0001780800    0.0001086400    0.0001533400
   0.0000157800   -0.0001136200   -0.0001612700
   0.0002854800    0.0007476100   -0.0013090700
   0.0003564400    0.0002126400    0.0002943300
  -0.0006455200   -0.0009417700    0.0010324400
   0.0022142400    0.0140554500   -0.0072159100
   0.0013073800    0.0007784400    0.0010621600
   0.0022398300   -0.0113511900    0.0107814700
  -0.0006460600    0.0012856200   -0.0005482200
   0.0003541600    0.0002140700    0.0002962800
   0.0002903900   -0.0014819500    0.0002688200
  -0.0011382200    0.0009924600    0.0002688200
   0.0007903500   -0.0012023200   -0.0005482200
   0.0003624700    0.0001996800    0.0002962800
   0.0007924100   -0.0001224200   -0.0013080000
  -0.0011414800   -0.0000870500    0.0010291500
   0.0003574500    0.0002025000    0.0003003400
  -0.0000905100    0.0000704800   -0.0001612700
  -0.0000905000   -0.0001854400    0.0000197100
   0.0001831300    0.0000999000    0.0001533400
  -0.0011383600   -0.0000881500    0.0010324400
   0.0007901800   -0.0001265700   -0.0013090700
   0.0003623800    0.0002023700    0.0002943300
   0.0007922700   -0.0012028400   -0.0005439600
  -0.0011420400    0.0009889200    0.0002681500
   0.0003572500    0.0002052800    0.0002985300
  -0.0000906300   -0.0001860900    0.0000199400
  -0.0000907000    0.0000700600   -0.0001610600
   0.0001831400    0.0001006100    0.0001523500
  -0.0087105000    0.0076153500    0.0107814700
   0.0132795000   -0.0051101400   -0.0072159100
   0.0013278400    0.0007430100    0.0010621600
   0.0132005900   -0.0050345000   -0.0071089700
  -0.0088410400    0.0076609100    0.0108461400
   0.0012963600    0.0007610600    0.0010875900
  -0.0001886700   -0.0001147000   -0.0001508300
  -0.0001917600   -0.0001163100   -0.0001530200
   0.0004107300    0.0002315000    0.0003387000
