# epsilon and Z* of atoms 1 3
   2.53748980    0.00000000    0.00000000    0.00000000    2.53748980    0.00000000    0.00000000    0.00000000    2.64177879 
   2.22417211   -0.15855229    0.00000000   -0.15855229    2.22417211    0.00000000    0.00000000    0.00000000    2.40786256 
  -1.11208606   -0.40882621    0.00000000   -0.40882621   -1.11208606    0.00000000    0.00000000    0.00000000   -1.20393128 
