nqpoint: 459    
npath: 9      
segment_nqpoint:
- 51
- 51
- 51
- 51
- 51
- 51
- 51
- 51
- 51
labels:
- [ '$\Gamma$', '$\mathrm{X}$' ]
- [ '$\mathrm{X}$', '$\mathrm{M}$' ]
- [ '$\mathrm{M}$', '$\Gamma$' ]
- [ '$\Gamma$', '$\mathrm{Z}$' ]
- [ '$\mathrm{Z}$', '$\mathrm{R}$' ]
- [ '$\mathrm{R}$', '$\mathrm{A}$' ]
- [ '$\mathrm{A}$', '$\mathrm{Z}$' ]
- [ '$\mathrm{X}$', '$\mathrm{R}$' ]
- [ '$\mathrm{M}$', '$\mathrm{A}$' ]
reciprocal_lattice:
- [   0.21189294,   0.00000000,   0.00000000 ] # a*
- [   0.00000000,   0.21189294,   0.00000000 ] # b*
- [   0.00000000,   0.00000000,   0.31871399 ] # c*
natom: 6      
lattice:
- [     4.719364411305122,     0.000000000000000,     0.000000000000000 ] # a
- [     0.000000000000000,     4.719364411305122,     0.000000000000000 ] # b
- [     0.000000000000000,     0.000000000000000,     3.137609328265899 ] # c
points:
- symbol: Zn # 1
  coordinates: [  0.500000000000000,  0.500000000000000,  0.500000000000000 ]
  mass: 65.380000
- symbol: Zn # 2
  coordinates: [  0.000000000000000,  0.000000000000000,  0.000000000000000 ]
  mass: 65.380000
- symbol: F # 3
  coordinates: [  0.696262970795373,  0.696262970795373,  0.000000000000000 ]
  mass: 18.998403
- symbol: F # 4
  coordinates: [  0.196262970795373,  0.803737029204627,  0.500000000000000 ]
  mass: 18.998403
- symbol: F # 5
  coordinates: [  0.303737029204627,  0.303737029204627,  0.000000000000000 ]
  mass: 18.998403
- symbol: F # 6
  coordinates: [  0.803737029204627,  0.196262970795373,  0.500000000000000 ]
  mass: 18.998403

phonon:
- q-position: [    0.0000000,    0.0000000,    0.0000000 ]
  distance:    0.0000000
  band:
  - # 1
    frequency:   -0.0279746549
  - # 2
    frequency:   -0.0256068537
  - # 3
    frequency:   -0.0156712995
  - # 4
    frequency:    1.7328277349
  - # 5
    frequency:    3.5531003457
  - # 6
    frequency:    4.8106036010
  - # 7
    frequency:    6.5697369892
  - # 8
    frequency:    7.1171489797
  - # 9
    frequency:    7.2567981046
  - # 10
    frequency:    7.3587615470
  - # 11
    frequency:    7.3587615470
  - # 12
    frequency:    7.5113995498
  - # 13
    frequency:    9.0034225142
  - # 14
    frequency:   10.0541504801
  - # 15
    frequency:   10.7836304869
  - # 16
    frequency:   11.4775997997
  - # 17
    frequency:   14.8190606857
  - # 18
    frequency:   15.2088319705

- q-position: [    0.0000000,    0.0100000,    0.0000000 ]
  distance:    0.0021189
  band:
  - # 1
    frequency:    0.0596749349
  - # 2
    frequency:    0.0840659678
  - # 3
    frequency:    0.1084462392
  - # 4
    frequency:    1.7346223557
  - # 5
    frequency:    3.5526989437
  - # 6
    frequency:    4.8106522123
  - # 7
    frequency:    6.5691454048
  - # 8
    frequency:    7.1124171470
  - # 9
    frequency:    7.2605761422
  - # 10
    frequency:    7.3586505954
  - # 11
    frequency:    7.3587041109
  - # 12
    frequency:    7.5108329630
  - # 13
    frequency:    9.0040119035
  - # 14
    frequency:   10.0546311690
  - # 15
    frequency:   10.7832763061
  - # 16
    frequency:   11.4770848081
  - # 17
    frequency:   14.8191974012
  - # 18
    frequency:   15.2088158462

- q-position: [    0.0000000,    0.0200000,    0.0000000 ]
  distance:    0.0042379
  band:
  - # 1
    frequency:    0.1272872768
  - # 2
    frequency:    0.1749341781
  - # 3
    frequency:    0.2185495641
  - # 4
    frequency:    1.7399916791
  - # 5
    frequency:    3.5514951671
  - # 6
    frequency:    4.8107984046
  - # 7
    frequency:    6.5673713856
  - # 8
    frequency:    7.0994909644
  - # 9
    frequency:    7.2706405846
  - # 10
    frequency:    7.3583185423
  - # 11
    frequency:    7.3585319189
  - # 12
    frequency:    7.5091360386
  - # 13
    frequency:    9.0057785995
  - # 14
    frequency:   10.0560710045
  - # 15
    frequency:   10.7822139625
  - # 16
    frequency:   11.4755413723
  - # 17
    frequency:   14.8196074418
  - # 18
    frequency:   15.2087671495

- q-position: [    0.0000000,    0.0300000,    0.0000000 ]
  distance:    0.0063568
  band:
  - # 1
    frequency:    0.1929734957
  - # 2
    frequency:    0.2641583514
  - # 3
    frequency:    0.3282050102
  - # 4
    frequency:    1.7488925922
  - # 5
    frequency:    3.5494902988
  - # 6
    frequency:    4.8110432566
  - # 7
    frequency:    6.5644171108
  - # 8
    frequency:    7.0808157021
  - # 9
    frequency:    7.2845451032
  - # 10
    frequency:    7.3577677813
  - # 11
    frequency:    7.3582453193
  - # 12
    frequency:    7.5063172797
  - # 13
    frequency:    9.0087182002
  - # 14
    frequency:   10.0584633238
  - # 15
    frequency:   10.7804440535
  - # 16
    frequency:   11.4729741033
  - # 17
    frequency:   14.8202904891
  - # 18
    frequency:   15.2086849107

- q-position: [    0.0000000,    0.0400000,    0.0000000 ]
  distance:    0.0084757
  band:
  - # 1
    frequency:    0.2581164470
  - # 2
    frequency:    0.3528869851
  - # 3
    frequency:    0.4376610219
  - # 4
    frequency:    1.7612548952
  - # 5
    frequency:    3.5466864639
  - # 6
    frequency:    4.8113885791
  - # 7
    frequency:    6.5602861396
  - # 8
    frequency:    7.0583446694
  - # 9
    frequency:    7.3003346461
  - # 10
    frequency:    7.3570022641
  - # 11
    frequency:    7.3578448948
  - # 12
    frequency:    7.5023908432
  - # 13
    frequency:    9.0128234151
  - # 14
    frequency:   10.0617971222
  - # 15
    frequency:   10.7779675741
  - # 16
    frequency:   11.4693906648
  - # 17
    frequency:   14.8212460076
  - # 18
    frequency:   15.2085675225

- q-position: [    0.0000000,    0.0500000,    0.0000000 ]
  distance:    0.0105946
  band:
  - # 1
    frequency:    0.3229432139
  - # 2
    frequency:    0.4413062229
  - # 3
    frequency:    0.5469367617
  - # 4
    frequency:    1.7769836816
  - # 5
    frequency:    3.5430866093
  - # 6
    frequency:    4.8118369332
  - # 7
    frequency:    6.5549833029
  - # 8
    frequency:    7.0332611058
  - # 9
    frequency:    7.3168235794
  - # 10
    frequency:    7.3560274449
  - # 11
    frequency:    7.3573314647
  - # 12
    frequency:    7.4973765173
  - # 13
    frequency:    9.0180841319
  - # 14
    frequency:   10.0660572013
  - # 15
    frequency:   10.7747859169
  - # 16
    frequency:   11.4648017412
  - # 17
    frequency:   14.8224732381
  - # 18
    frequency:   15.2084127525

- q-position: [    0.0000000,    0.0600000,    0.0000000 ]
  distance:    0.0127136
  band:
  - # 1
    frequency:    0.3875041073
  - # 2
    frequency:    0.5294496414
  - # 3
    frequency:    0.6560119437
  - # 4
    frequency:    1.7959624874
  - # 5
    frequency:    3.5386944756
  - # 6
    frequency:    4.8123916578
  - # 7
    frequency:    6.5485145582
  - # 8
    frequency:    7.0062372163
  - # 9
    frequency:    7.3333366967
  - # 10
    frequency:    7.3548502061
  - # 11
    frequency:    7.3567060885
  - # 12
    frequency:    7.4912996909
  - # 13
    frequency:    9.0244875091
  - # 14
    frequency:   10.0712243702
  - # 15
    frequency:   10.7709008715
  - # 16
    frequency:   11.4592209930
  - # 17
    frequency:   14.8239711879
  - # 18
    frequency:   15.2082177605

- q-position: [    0.0000000,    0.0700000,    0.0000000 ]
  distance:    0.0148325
  band:
  - # 1
    frequency:    0.4518003414
  - # 2
    frequency:    0.6173073580
  - # 3
    frequency:    0.7648530127
  - # 4
    frequency:    1.8180570684
  - # 5
    frequency:    3.5335145617
  - # 6
    frequency:    4.8130569050
  - # 7
    frequency:    6.5408868099
  - # 8
    frequency:    6.9776622079
  - # 9
    frequency:    7.3494812418
  - # 10
    frequency:    7.3534787649
  - # 11
    frequency:    7.3559700699
  - # 12
    frequency:    7.4841913141
  - # 13
    frequency:    9.0320180888
  - # 14
    frequency:   10.0772756950
  - # 15
    frequency:   10.7663146237
  - # 16
    frequency:   11.4526649988
  - # 17
    frequency:   14.8257386193
  - # 18
    frequency:   15.2079791214

- q-position: [    0.0000000,    0.0800000,    0.0000000 ]
  distance:    0.0169514
  band:
  - # 1
    frequency:    0.5158152072
  - # 2
    frequency:    0.7048527617
  - # 3
    frequency:    0.8734189098
  - # 4
    frequency:    1.8431196782
  - # 5
    frequency:    3.5275520818
  - # 6
    frequency:    4.8138376844
  - # 7
    frequency:    6.5321077021
  - # 8
    frequency:    6.9477720456
  - # 9
    frequency:    7.3519225669
  - # 10
    frequency:    7.3551249622
  - # 11
    frequency:    7.3650172250
  - # 12
    frequency:    7.4760878517
  - # 13
    frequency:    9.0406579301
  - # 14
    frequency:   10.0841847911
  - # 15
    frequency:   10.7610297549
  - # 16
    frequency:   11.4451531836
  - # 17
    frequency:   14.8277740351
  - # 18
    frequency:   15.2076928514

- q-position: [    0.0000000,    0.0900000,    0.0000000 ]
  distance:    0.0190704
  band:
  - # 1
    frequency:    0.5795243905
  - # 2
    frequency:    0.7920512554
  - # 3
    frequency:    0.9816620288
  - # 4
    frequency:    1.8709937689
  - # 5
    frequency:    3.5208129166
  - # 6
    frequency:    4.8147399175
  - # 7
    frequency:    6.5221853911
  - # 8
    frequency:    6.9167173477
  - # 9
    frequency:    7.3501921666
  - # 10
    frequency:    7.3541725737
  - # 11
    frequency:    7.3797896149
  - # 12
    frequency:    7.4670312266
  - # 13
    frequency:    9.0503867576
  - # 14
    frequency:   10.0919221501
  - # 15
    frequency:   10.7550492414
  - # 16
    frequency:   11.4367077351
  - # 17
    frequency:   14.8300756624
  - # 18
    frequency:   15.2073544393

- q-position: [    0.0000000,    0.1000000,    0.0000000 ]
  distance:    0.0211893
  band:
  - # 1
    frequency:    0.6429001150
  - # 2
    frequency:    0.8788636407
  - # 3
    frequency:    1.0895273064
  - # 4
    frequency:    1.9015191320
  - # 5
    frequency:    3.5133035564
  - # 6
    frequency:    4.8157705022
  - # 7
    frequency:    6.5111283050
  - # 8
    frequency:    6.8845991047
  - # 9
    frequency:    7.3482990999
  - # 10
    frequency:    7.3531149737
  - # 11
    frequency:    7.3936927204
  - # 12
    frequency:    7.4570687535
  - # 13
    frequency:    9.0611821224
  - # 14
    frequency:   10.1004554954
  - # 15
    frequency:   10.7483764530
  - # 16
    frequency:   11.4273535048
  - # 17
    frequency:   14.8326414351
  - # 18
    frequency:   15.2069588814

- q-position: [    0.0000000,    0.1100000,    0.0000000 ]
  distance:    0.0233082
  band:
  - # 1
    frequency:    0.7059130549
  - # 2
    frequency:    0.9652475546
  - # 3
    frequency:    1.1969500008
  - # 4
    frequency:    1.9345376420
  - # 5
    frequency:    3.5050310402
  - # 6
    frequency:    4.8169373891
  - # 7
    frequency:    6.4989449010
  - # 8
    frequency:    6.8514880903
  - # 9
    frequency:    7.3462557505
  - # 10
    frequency:    7.3519544985
  - # 11
    frequency:    7.4066508959
  - # 12
    frequency:    7.4462530610
  - # 13
    frequency:    9.0730195719
  - # 14
    frequency:   10.1097501577
  - # 15
    frequency:   10.7410151526
  - # 16
    frequency:   11.4171178959
  - # 17
    frequency:   14.8354689742
  - # 18
    frequency:   15.2065007199

- q-position: [    0.0000000,    0.1200000,    0.0000000 ]
  distance:    0.0254272
  band:
  - # 1
    frequency:    0.7685333207
  - # 2
    frequency:    1.0511580901
  - # 3
    frequency:    1.3038519409
  - # 4
    frequency:    1.9699000090
  - # 5
    frequency:    3.4960028882
  - # 6
    frequency:    4.8182496699
  - # 7
    frequency:    6.4856434281
  - # 8
    frequency:    6.8174358306
  - # 9
    frequency:    7.3440752148
  - # 10
    frequency:    7.3506937578
  - # 11
    frequency:    7.4186077039
  - # 12
    frequency:    7.4346419964
  - # 13
    frequency:    9.0858728261
  - # 14
    frequency:   10.1197694629
  - # 15
    frequency:   10.7329694950
  - # 16
    frequency:   11.4060307372
  - # 17
    frequency:   14.8385555676
  - # 18
    frequency:   15.2059740848

- q-position: [    0.0000000,    0.1300000,    0.0000000 ]
  distance:    0.0275461
  band:
  - # 1
    frequency:    0.8307310194
  - # 2
    frequency:    1.1365480329
  - # 3
    frequency:    1.4101354945
  - # 4
    frequency:    2.0074743393
  - # 5
    frequency:    3.4862270305
  - # 6
    frequency:    4.8197176795
  - # 7
    frequency:    6.4712317095
  - # 8
    frequency:    6.7824810454
  - # 9
    frequency:    7.3417711653
  - # 10
    frequency:    7.3493356407
  - # 11
    frequency:    7.4222985121
  - # 12
    frequency:    7.4295196211
  - # 13
    frequency:    9.0997139552
  - # 14
    frequency:   10.1304751272
  - # 15
    frequency:   10.7242440262
  - # 16
    frequency:   11.3941241428
  - # 17
    frequency:   14.8418981489
  - # 18
    frequency:   15.2053727382

- q-position: [    0.0000000,    0.1400000,    0.0000000 ]
  distance:    0.0296650
  band:
  - # 1
    frequency:    0.8924765990
  - # 2
    frequency:    1.2213678976
  - # 3
    frequency:    1.5156737908
  - # 4
    frequency:    2.0471579931
  - # 5
    frequency:    3.4757117309
  - # 6
    frequency:    4.8213531122
  - # 7
    frequency:    6.4557169527
  - # 8
    frequency:    6.7466535682
  - # 9
    frequency:    7.3393577187
  - # 10
    frequency:    7.3478833215
  - # 11
    frequency:    7.4092905246
  - # 12
    frequency:    7.4393522814
  - # 13
    frequency:    9.1145135580
  - # 14
    frequency:   10.1418276501
  - # 15
    frequency:   10.7148436821
  - # 16
    frequency:   11.3814323572
  - # 17
    frequency:   14.8454932758
  - # 18
    frequency:   15.2046901217

- q-position: [    0.0000000,    0.1500000,    0.0000000 ]
  distance:    0.0317839
  band:
  - # 1
    frequency:    0.9537410789
  - # 2
    frequency:    1.3055658487
  - # 3
    frequency:    1.6202944896
  - # 4
    frequency:    2.0888954707
  - # 5
    frequency:    3.4644655084
  - # 6
    frequency:    4.8231691542
  - # 7
    frequency:    6.4391056015
  - # 8
    frequency:    6.7099768066
  - # 9
    frequency:    7.3368493072
  - # 10
    frequency:    7.3463402645
  - # 11
    frequency:    7.3956907418
  - # 12
    frequency:    7.4480781950
  - # 13
    frequency:    9.1302409361
  - # 14
    frequency:   10.1537867020
  - # 15
    frequency:   10.7047737885
  - # 16
    frequency:   11.3679915865
  - # 17
    frequency:   14.8493371089
  - # 18
    frequency:   15.2039194054

- q-position: [    0.0000000,    0.1600000,    0.0000000 ]
  distance:    0.0339029
  band:
  - # 1
    frequency:    1.0144962141
  - # 2
    frequency:    1.3890875500
  - # 3
    frequency:    1.7237521131
  - # 4
    frequency:    2.1327073428
  - # 5
    frequency:    3.4524970557
  - # 6
    frequency:    4.8251806318
  - # 7
    frequency:    6.4214032406
  - # 8
    frequency:    6.6724693307
  - # 9
    frequency:    7.3342605574
  - # 10
    frequency:    7.3447102283
  - # 11
    frequency:    7.3815764495
  - # 12
    frequency:    7.4556753558
  - # 13
    frequency:    9.1468642647
  - # 14
    frequency:   10.1663114991
  - # 15
    frequency:   10.6940400598
  - # 16
    frequency:   11.3538398150
  - # 17
    frequency:   14.8534253908
  - # 18
    frequency:   15.2030535390

- q-position: [    0.0000000,    0.1700000,    0.0000000 ]
  distance:    0.0360218
  band:
  - # 1
    frequency:    1.0747146193
  - # 2
    frequency:    1.4718759613
  - # 3
    frequency:    1.8256799020
  - # 4
    frequency:    2.1787393080
  - # 5
    frequency:    3.4398151554
  - # 6
    frequency:    4.8274041775
  - # 7
    frequency:    6.4026145643
  - # 8
    frequency:    6.6341459219
  - # 9
    frequency:    7.3316061765
  - # 10
    frequency:    7.3429972695
  - # 11
    frequency:    7.3670292493
  - # 12
    frequency:    7.4621264041
  - # 13
    frequency:    9.1643507549
  - # 14
    frequency:   10.1793611628
  - # 15
    frequency:   10.6826485994
  - # 16
    frequency:   11.3390166082
  - # 17
    frequency:   14.8577534256
  - # 18
    frequency:   15.2020853038

- q-position: [    0.0000000,    0.1800000,    0.0000000 ]
  distance:    0.0381407
  band:
  - # 1
    frequency:    1.1343698680
  - # 2
    frequency:    1.5538710979
  - # 3
    frequency:    1.9255060345
  - # 4
    frequency:    2.2273465820
  - # 5
    frequency:    3.4264285958
  - # 6
    frequency:    4.8298584136
  - # 7
    frequency:    6.3827434198
  - # 8
    frequency:    6.5950182806
  - # 9
    frequency:    7.3289008472
  - # 10
    frequency:    7.3412057441
  - # 11
    frequency:    7.3521347406
  - # 12
    frequency:    7.4674181460
  - # 13
    frequency:    9.1826668095
  - # 14
    frequency:   10.1928950602
  - # 15
    frequency:   10.6706058986
  - # 16
    frequency:   11.3235629026
  - # 17
    frequency:   14.8623160610
  - # 18
    frequency:   15.2010073659

- q-position: [    0.0000000,    0.1900000,    0.0000000 ]
  distance:    0.0402597
  band:
  - # 1
    frequency:    1.1934365735
  - # 2
    frequency:    1.6350097580
  - # 3
    frequency:    2.0223160164
  - # 4
    frequency:    2.2792318616
  - # 5
    frequency:    3.4123460865
  - # 6
    frequency:    4.8325641533
  - # 7
    frequency:    6.3617929350
  - # 8
    frequency:    6.5550955112
  - # 9
    frequency:    7.3261591329
  - # 10
    frequency:    7.3369821379
  - # 11
    frequency:    7.3393403092
  - # 12
    frequency:    7.4715413115
  - # 13
    frequency:    9.2017781692
  - # 14
    frequency:   10.2068731215
  - # 15
    frequency:   10.6579188377
  - # 16
    frequency:   11.3075207819
  - # 17
    frequency:   14.8671076706
  - # 18
    frequency:   15.1998123304

- q-position: [    0.0000000,    0.2000000,    0.0000000 ]
  distance:    0.0423786
  band:
  - # 1
    frequency:    1.2518904583
  - # 2
    frequency:    1.7152252239
  - # 3
    frequency:    2.1146749237
  - # 4
    frequency:    2.3356232260
  - # 5
    frequency:    3.3975761735
  - # 6
    frequency:    4.8355446187
  - # 7
    frequency:    6.3397657354
  - # 8
    frequency:    6.5143844602
  - # 9
    frequency:    7.3216638189
  - # 10
    frequency:    7.3233953906
  - # 11
    frequency:    7.3374059213
  - # 12
    frequency:    7.4744904723
  - # 13
    frequency:    9.2216500485
  - # 14
    frequency:   10.2212561336
  - # 15
    frequency:   10.6445946857
  - # 16
    frequency:   11.2909332424
  - # 17
    frequency:   14.8721221395
  - # 18
    frequency:   15.1984927951

- q-position: [    0.0000000,    0.2100000,    0.0000000 ]
  distance:    0.0444975
  band:
  - # 1
    frequency:    1.3097084129
  - # 2
    frequency:    1.7944469420
  - # 3
    frequency:    2.2005913511
  - # 4
    frequency:    2.3983101672
  - # 5
    frequency:    3.3821271569
  - # 6
    frequency:    4.8388256740
  - # 7
    frequency:    6.3166642567
  - # 8
    frequency:    6.4728899559
  - # 9
    frequency:    7.3062747974
  - # 10
    frequency:    7.3206236953
  - # 11
    frequency:    7.3354078344
  - # 12
    frequency:    7.4762640730
  - # 13
    frequency:    9.2422472631
  - # 14
    frequency:   10.2360060085
  - # 15
    frequency:   10.6306411012
  - # 16
    frequency:   11.2738439468
  - # 17
    frequency:   14.8773528520
  - # 18
    frequency:   15.1970414049

- q-position: [    0.0000000,    0.2200000,    0.0000000 ]
  distance:    0.0466164
  band:
  - # 1
    frequency:    1.3668685471
  - # 2
    frequency:    1.8726001854
  - # 3
    frequency:    2.2781271662
  - # 4
    frequency:    2.4690336868
  - # 5
    frequency:    3.3660070094
  - # 6
    frequency:    4.8424360693
  - # 7
    frequency:    6.2924911521
  - # 8
    frequency:    6.4306149825
  - # 9
    frequency:    7.2909121224
  - # 10
    frequency:    7.3178577721
  - # 11
    frequency:    7.3333515957
  - # 12
    frequency:    7.4768645397
  - # 13
    frequency:    9.2635343464
  - # 14
    frequency:   10.2510860250
  - # 15
    frequency:   10.6160661339
  - # 16
    frequency:   11.2562969694
  - # 17
    frequency:   14.8827926820
  - # 18
    frequency:   15.1954509053

- q-position: [    0.0000000,    0.2300000,    0.0000000 ]
  distance:    0.0487354
  band:
  - # 1
    frequency:    1.4233502351
  - # 2
    frequency:    1.9496057060
  - # 3
    frequency:    2.3467520906
  - # 4
    frequency:    2.5481314724
  - # 5
    frequency:    3.3492232988
  - # 6
    frequency:    4.8464076914
  - # 7
    frequency:    6.2672497909
  - # 8
    frequency:    6.3875608104
  - # 9
    frequency:    7.2756742040
  - # 10
    frequency:    7.3151109376
  - # 11
    frequency:    7.3312430390
  - # 12
    frequency:    7.4762984431
  - # 13
    frequency:    9.2854756563
  - # 14
    frequency:   10.2664610441
  - # 15
    frequency:   10.6008782256
  - # 16
    frequency:   11.2383365337
  - # 17
    frequency:   14.8884339870
  - # 18
    frequency:   15.1937141955

- q-position: [    0.0000000,    0.2400000,    0.0000000 ]
  distance:    0.0508543
  band:
  - # 1
    frequency:    1.4791341533
  - # 2
    frequency:    2.0253793834
  - # 3
    frequency:    2.4078563128
  - # 4
    frequency:    2.6340249776
  - # 5
    frequency:    3.3317831125
  - # 6
    frequency:    4.8507758121
  - # 7
    frequency:    6.2409448409
  - # 8
    frequency:    6.3437271015
  - # 9
    frequency:    7.2606600730
  - # 10
    frequency:    7.3123960493
  - # 11
    frequency:    7.3290882774
  - # 12
    frequency:    7.4745766981
  - # 13
    frequency:    9.3080354729
  - # 14
    frequency:   10.2820976977
  - # 15
    frequency:   10.5850862129
  - # 16
    frequency:   11.2200067448
  - # 17
    frequency:   14.8942686054
  - # 18
    frequency:   15.1918243808

- q-position: [    0.0000000,    0.2500000,    0.0000000 ]
  distance:    0.0529732
  band:
  - # 1
    frequency:    1.5342023130
  - # 2
    frequency:    2.0998318807
  - # 3
    frequency:    2.4635741998
  - # 4
    frequency:    2.7243953605
  - # 5
    frequency:    3.3136929880
  - # 6
    frequency:    4.8555793235
  - # 7
    frequency:    6.2135829226
  - # 8
    frequency:    6.2991120010
  - # 9
    frequency:    7.2459685848
  - # 10
    frequency:    7.3097254627
  - # 11
    frequency:    7.3268936920
  - # 12
    frequency:    7.4717147855
  - # 13
    frequency:    9.3311780868
  - # 14
    frequency:   10.2979645511
  - # 15
    frequency:   10.5686993288
  - # 16
    frequency:   11.2013513188
  - # 17
    frequency:   14.9002878579
  - # 18
    frequency:   15.1897748231

- q-position: [    0.0000000,    0.2600000,    0.0000000 ]
  distance:    0.0550922
  band:
  - # 1
    frequency:    1.5885380878
  - # 2
    frequency:    2.1728683220
  - # 3
    frequency:    2.5156405356
  - # 4
    frequency:    2.8173268742
  - # 5
    frequency:    3.2949588465
  - # 6
    frequency:    4.8608609428
  - # 7
    frequency:    6.1851733184
  - # 8
    frequency:    6.2537122305
  - # 9
    frequency:    7.2316975827
  - # 10
    frequency:    7.3071109948
  - # 11
    frequency:    7.3246659202
  - # 12
    frequency:    7.4677329830
  - # 13
    frequency:    9.3548678790
  - # 14
    frequency:   10.3140322402
  - # 15
    frequency:   10.5517272064
  - # 16
    frequency:   11.1824133122
  - # 17
    frequency:   14.9064825522
  - # 18
    frequency:   15.1875591914

- q-position: [    0.0000000,    0.2700000,    0.0000000 ]
  distance:    0.0572111
  band:
  - # 1
    frequency:    1.6421262346
  - # 2
    frequency:    2.2443880074
  - # 3
    frequency:    2.5651485198
  - # 4
    frequency:    2.9115484897
  - # 5
    frequency:    3.2755859334
  - # 6
    frequency:    4.8666673671
  - # 7
    frequency:    6.1557287179
  - # 8
    frequency:    6.2075231927
  - # 9
    frequency:    7.2179430353
  - # 10
    frequency:    7.3045638935
  - # 11
    frequency:    7.3224118412
  - # 12
    frequency:    7.4626565963
  - # 13
    frequency:    9.3790693930
  - # 14
    frequency:   10.3302735838
  - # 15
    frequency:   10.5341798820
  - # 16
    frequency:   11.1632348540
  - # 17
    frequency:   14.9128429924
  - # 18
    frequency:   15.1851715087

- q-position: [    0.0000000,    0.2800000,    0.0000000 ]
  distance:    0.0593300
  band:
  - # 1
    frequency:    1.6949529096
  - # 2
    frequency:    2.3142841891
  - # 3
    frequency:    2.6127146033
  - # 4
    frequency:    3.0062686867
  - # 5
    frequency:    3.2555787638
  - # 6
    frequency:    4.8730493469
  - # 7
    frequency:    6.1252659782
  - # 8
    frequency:    6.1605391028
  - # 9
    frequency:    7.2047981713
  - # 10
    frequency:    7.3020948125
  - # 11
    frequency:    7.3201385590
  - # 12
    frequency:    7.4565161786
  - # 13
    frequency:    9.4037473989
  - # 14
    frequency:   10.3466636716
  - # 15
    frequency:   10.5160677993
  - # 16
    frequency:   11.1438568839
  - # 17
    frequency:   14.9193589929
  - # 18
    frequency:   15.1826061991

- q-position: [    0.0000000,    0.2900000,    0.0000000 ]
  distance:    0.0614490
  band:
  - # 1
    frequency:    1.7470056789
  - # 2
    frequency:    2.3824439353
  - # 3
    frequency:    2.6586633003
  - # 4
    frequency:    3.1009902823
  - # 5
    frequency:    3.2349410756
  - # 6
    frequency:    4.8800616407
  - # 7
    frequency:    6.0938068758
  - # 8
    frequency:    6.1127531652
  - # 9
    frequency:    7.1923526276
  - # 10
    frequency:    7.2997137911
  - # 11
    frequency:    7.3178533840
  - # 12
    frequency:    7.4493477301
  - # 13
    frequency:    9.4288669515
  - # 14
    frequency:   10.3631799298
  - # 15
    frequency:   10.4974018138
  - # 16
    frequency:   11.1243188997
  - # 17
    frequency:   14.9260198959
  - # 18
    frequency:   15.1798581314

- q-position: [    0.0000000,    0.3000000,    0.0000000 ]
  distance:    0.0635679
  band:
  - # 1
    frequency:    1.7982735230
  - # 2
    frequency:    2.4487481156
  - # 3
    frequency:    2.7031486485
  - # 4
    frequency:    3.1953886332
  - # 5
    frequency:    3.2136757885
  - # 6
    frequency:    4.8877628005
  - # 7
    frequency:    6.0613788315
  - # 8
    frequency:    6.0641578178
  - # 9
    frequency:    7.1806916344
  - # 10
    frequency:    7.2974302368
  - # 11
    frequency:    7.3155638120
  - # 12
    frequency:    7.4411928668
  - # 13
    frequency:    9.4543934415
  - # 14
    frequency:   10.3798021644
  - # 15
    frequency:   10.4781931981
  - # 16
    frequency:   11.1046587169
  - # 17
    frequency:   14.9328145934
  - # 18
    frequency:   15.1769226611

- q-position: [    0.0000000,    0.3100000,    0.0000000 ]
  distance:    0.0656868
  band:
  - # 1
    frequency:    1.8487468360
  - # 2
    frequency:    2.5130715443
  - # 3
    frequency:    2.7462245398
  - # 4
    frequency:    3.1917849714
  - # 5
    frequency:    3.2892409920
  - # 6
    frequency:    4.8962147200
  - # 7
    frequency:    6.0147450800
  - # 8
    frequency:    6.0280155866
  - # 9
    frequency:    7.1698952503
  - # 10
    frequency:    7.2952529128
  - # 11
    frequency:    7.3132775014
  - # 12
    frequency:    7.4320989511
  - # 13
    frequency:    9.4802926409
  - # 14
    frequency:   10.3965125833
  - # 15
    frequency:   10.4584536474
  - # 16
    frequency:   11.0849122455
  - # 17
    frequency:   14.9397315540
  - # 18
    frequency:   15.1737956702

- q-position: [    0.0000000,    0.3200000,    0.0000000 ]
  distance:    0.0678057
  band:
  - # 1
    frequency:    1.8984174185
  - # 2
    frequency:    2.5752833268
  - # 3
    frequency:    2.7878844645
  - # 4
    frequency:    3.1692698170
  - # 5
    frequency:    3.3823864803
  - # 6
    frequency:    4.9054818598
  - # 7
    frequency:    5.9645070552
  - # 8
    frequency:    5.9937578189
  - # 9
    frequency:    7.1600376644
  - # 10
    frequency:    7.2931899275
  - # 11
    frequency:    7.3110022488
  - # 12
    frequency:    7.4221191734
  - # 13
    frequency:    9.5065307443
  - # 14
    frequency:   10.4132957984
  - # 15
    frequency:   10.4381952858
  - # 16
    frequency:   11.0651132847
  - # 17
    frequency:   14.9467588532
  - # 18
    frequency:   15.1704736038

- q-position: [    0.0000000,    0.3300000,    0.0000000 ]
  distance:    0.0699247
  band:
  - # 1
    frequency:    1.9472784649
  - # 2
    frequency:    2.6352474527
  - # 3
    frequency:    2.8280842130
  - # 4
    frequency:    3.1461306252
  - # 5
    frequency:    3.4747031338
  - # 6
    frequency:    4.9156300259
  - # 7
    frequency:    5.9134366681
  - # 8
    frequency:    5.9586536863
  - # 9
    frequency:    7.1511865725
  - # 10
    frequency:    7.2912487264
  - # 11
    frequency:    7.3087459620
  - # 12
    frequency:    7.4113125780
  - # 13
    frequency:    9.5330744036
  - # 14
    frequency:   10.4174306732
  - # 15
    frequency:   10.4301388086
  - # 16
    frequency:   11.0452933407
  - # 17
    frequency:   14.9538842079
  - # 18
    frequency:   15.1669535047

- q-position: [    0.0000000,    0.3400000,    0.0000000 ]
  distance:    0.0720436
  band:
  - # 1
    frequency:    1.9953245450
  - # 2
    frequency:    2.6928236810
  - # 3
    frequency:    2.8667551420
  - # 4
    frequency:    3.1223667935
  - # 5
    frequency:    3.5660944145
  - # 6
    frequency:    4.9267245334
  - # 7
    frequency:    5.8615287708
  - # 8
    frequency:    5.9227592944
  - # 9
    frequency:    7.1434026335
  - # 10
    frequency:    7.2894360871
  - # 11
    frequency:    7.3065166325
  - # 12
    frequency:    7.3997440231
  - # 13
    frequency:    9.5598907601
  - # 14
    frequency:   10.3961728123
  - # 15
    frequency:   10.4470309639
  - # 16
    frequency:   11.0254814698
  - # 17
    frequency:   14.9610950144
  - # 18
    frequency:   15.1632330446

- q-position: [    0.0000000,    0.3500000,    0.0000000 ]
  distance:    0.0741625
  band:
  - # 1
    frequency:    2.0425515792
  - # 2
    frequency:    2.7478687581
  - # 3
    frequency:    2.9038121321
  - # 4
    frequency:    3.0979768172
  - # 5
    frequency:    3.6564810605
  - # 6