phonopy:
  version: "2.40.0"
  frequency_unit_conversion_factor: 15.633302
  symmetry_tolerance: 1.00000e-05
  configuration:
    create_displacements: ".true."
    primitive_axes: "auto"
    dim: "3 3 4"

physical_unit:
  atomic_mass: "AMU"
  length: "angstrom"

space_group:
  type: "P4_2/mnm"
  number: 136
  Hall_symbol: "-P 4n 2n"

primitive_matrix:
- [  1.000000000000000,  0.000000000000000,  0.000000000000000 ]
- [  0.000000000000000,  1.000000000000000,  0.000000000000000 ]
- [  0.000000000000000,  0.000000000000000,  1.000000000000000 ]

supercell_matrix:
- [   3,   0,   0 ]
- [   0,   3,   0 ]
- [   0,   0,   4 ]

primitive_cell:
  lattice:
  - [     4.719364411305122,     0.000000000000000,     0.000000000000000 ] # a
  - [     0.000000000000000,     4.719364411305122,     0.000000000000000 ] # b
  - [     0.000000000000000,     0.000000000000000,     3.137609328265899 ] # c
  points:
  - symbol: Zn # 1
    coordinates: [  0.500000000000000,  0.500000000000000,  0.500000000000000 ]
    mass: 65.380000
  - symbol: Zn # 2
    coordinates: [  0.000000000000000,  0.000000000000000,  0.000000000000000 ]
    mass: 65.380000
  - symbol: F # 3
    coordinates: [  0.696262970795373,  0.696262970795373,  0.000000000000000 ]
    mass: 18.998403
  - symbol: F # 4
    coordinates: [  0.196262970795373,  0.803737029204627,  0.500000000000000 ]
    mass: 18.998403
  - symbol: F # 5
    coordinates: [  0.303737029204627,  0.303737029204627,  0.000000000000000 ]
    mass: 18.998403
  - symbol: F # 6
    coordinates: [  0.803737029204627,  0.196262970795373,  0.500000000000000 ]
    mass: 18.998403
  reciprocal_lattice: # without 2pi
  - [     0.211892939990929,     0.000000000000000,     0.000000000000000 ] # a*
  - [     0.000000000000000,     0.211892939990929,     0.000000000000000 ] # b*
  - [     0.000000000000000,     0.000000000000000,     0.318713993801351 ] # c*

unit_cell:
  lattice:
  - [     4.719364411305122,    -0.000000000000000,     0.000000000000000 ] # a
  - [    -0.000000000000000,     4.719364411305122,     0.000000000000000 ] # b
  - [     0.000000000000000,     0.000000000000000,     3.137609328265899 ] # c
  points:
  - symbol: Zn # 1
    coordinates: [  0.500000000000000,  0.500000000000000,  0.500000000000000 ]
    mass: 65.380000
    reduced_to: 1
  - symbol: Zn # 2
    coordinates: [  0.000000000000000,  0.000000000000000,  0.000000000000000 ]
    mass: 65.380000
    reduced_to: 2
  - symbol: F # 3
    coordinates: [  0.696262970795373,  0.696262970795373, -0.000000000000000 ]
    mass: 18.998403
    reduced_to: 3
  - symbol: F # 4
    coordinates: [  0.196262970795373,  0.803737029204627,  0.500000000000000 ]
    mass: 18.998403
    reduced_to: 4
  - symbol: F # 5
    coordinates: [  0.303737029204627,  0.303737029204627,  0.000000000000000 ]
    mass: 18.998403
    reduced_to: 5
  - symbol: F # 6
    coordinates: [  0.803737029204627,  0.196262970795373,  0.500000000000000 ]
    mass: 18.998403
    reduced_to: 6

supercell:
  lattice:
  - [    14.158093233915366,     0.000000000000000,     0.000000000000000 ] # a
  - [     0.000000000000000,    14.158093233915366,     0.000000000000000 ] # b
  - [     0.000000000000000,     0.000000000000000,    12.550437313063595 ] # c
  points:
  - symbol: Zn # 1
    coordinates: [  0.166666666666667,  0.166666666666667,  0.125000000000000 ]
    mass: 65.380000
    reduced_to: 1
  - symbol: Zn # 2
    coordinates: [  0.500000000000000,  0.166666666666667,  0.125000000000000 ]
    mass: 65.380000
    reduced_to: 1
  - symbol: Zn # 3
    coordinates: [  0.833333333333333,  0.166666666666667,  0.125000000000000 ]
    mass: 65.380000
    reduced_to: 1
  - symbol: Zn # 4
    coordinates: [  0.166666666666667,  0.500000000000000,  0.125000000000000 ]
    mass: 65.380000
    reduced_to: 1
  - symbol: Zn # 5
    coordinates: [  0.500000000000000,  0.500000000000000,  0.125000000000000 ]
    mass: 65.380000
    reduced_to: 1
  - symbol: Zn # 6
    coordinates: [  0.833333333333333,  0.500000000000000,  0.125000000000000 ]
    mass: 65.380000
    reduced_to: 1
  - symbol: Zn # 7
    coordinates: [  0.166666666666667,  0.833333333333333,  0.125000000000000 ]
    mass: 65.380000
    reduced_to: 1
  - symbol: Zn # 8
    coordinates: [  0.500000000000000,  0.833333333333333,  0.125000000000000 ]
    mass: 65.380000
    reduced_to: 1
  - symbol: Zn # 9
    coordinates: [  0.833333333333333,  0.833333333333333,  0.125000000000000 ]
    mass: 65.380000
    reduced_to: 1
  - symbol: Zn # 10
    coordinates: [  0.166666666666667,  0.166666666666667,  0.375000000000000 ]
    mass: 65.380000
    reduced_to: 1
  - symbol: Zn # 11
    coordinates: [  0.500000000000000,  0.166666666666667,  0.375000000000000 ]
    mass: 65.380000
    reduced_to: 1
  - symbol: Zn # 12
    coordinates: [  0.833333333333333,  0.166666666666667,  0.375000000000000 ]
    mass: 65.380000
    reduced_to: 1
  - symbol: Zn # 13
    coordinates: [  0.166666666666667,  0.500000000000000,  0.375000000000000 ]
    mass: 65.380000
    reduced_to: 1
  - symbol: Zn # 14
    coordinates: [  0.500000000000000,  0.500000000000000,  0.375000000000000 ]
    mass: 65.380000
    reduced_to: 1
  - symbol: Zn # 15
    coordinates: [  0.833333333333333,  0.500000000000000,  0.375000000000000 ]
    mass: 65.380000
    reduced_to: 1
  - symbol: Zn # 16
    coordinates: [  0.166666666666667,  0.833333333333333,  0.375000000000000 ]
    mass: 65.380000
    reduced_to: 1
  - symbol: Zn # 17
    coordinates: [  0.500000000000000,  0.833333333333333,  0.375000000000000 ]
    mass: 65.380000
    reduced_to: 1
  - symbol: Zn # 18
    coordinates: [  0.833333333333333,  0.833333333333333,  0.375000000000000 ]
    mass: 65.380000
    reduced_to: 1
  - symbol: Zn # 19
    coordinates: [  0.166666666666667,  0.166666666666667,  0.625000000000000 ]
    mass: 65.380000
    reduced_to: 1
  - symbol: Zn # 20
    coordinates: [  0.500000000000000,  0.166666666666667,  0.625000000000000 ]
    mass: 65.380000
    reduced_to: 1
  - symbol: Zn # 21
    coordinates: [  0.833333333333333,  0.166666666666667,  0.625000000000000 ]
    mass: 65.380000
    reduced_to: 1
  - symbol: Zn # 22
    coordinates: [  0.166666666666667,  0.500000000000000,  0.625000000000000 ]
    mass: 65.380000
    reduced_to: 1
  - symbol: Zn # 23
    coordinates: [  0.500000000000000,  0.500000000000000,  0.625000000000000 ]
    mass: 65.380000
    reduced_to: 1
  - symbol: Zn # 24
    coordinates: [  0.833333333333333,  0.500000000000000,  0.625000000000000 ]
    mass: 65.380000
    reduced_to: 1
  - symbol: Zn # 25
    coordinates: [  0.166666666666667,  0.833333333333333,  0.625000000000000 ]
    mass: 65.380000
    reduced_to: 1
  - symbol: Zn # 26
    coordinates: [  0.500000000000000,  0.833333333333333,  0.625000000000000 ]
    mass: 65.380000
    reduced_to: 1
  - symbol: Zn # 27
    coordinates: [  0.833333333333333,  0.833333333333333,  0.625000000000000 ]
    mass: 65.380000
    reduced_to: 1
  - symbol: Zn # 28
    coordinates: [  0.166666666666667,  0.166666666666667,  0.875000000000000 ]
    mass: 65.380000
    reduced_to: 1
  - symbol: Zn # 29
    coordinates: [  0.500000000000000,  0.166666666666667,  0.875000000000000 ]
    mass: 65.380000
    reduced_to: 1
  - symbol: Zn # 30
    coordinates: [  0.833333333333333,  0.166666666666667,  0.875000000000000 ]
    mass: 65.380000
    reduced_to: 1
  - symbol: Zn # 31
    coordinates: [  0.166666666666667,  0.500000000000000,  0.875000000000000 ]
    mass: 65.380000
    reduced_to: 1
  - symbol: Zn # 32
    coordinates: [  0.500000000000000,  0.500000000000000,  0.875000000000000 ]
    mass: 65.380000
    reduced_to: 1
  - symbol: Zn # 33
    coordinates: [  0.833333333333333,  0.500000000000000,  0.875000000000000 ]
    mass: 65.380000
    reduced_to: 1
  - symbol: Zn # 34
    coordinates: [  0.166666666666667,  0.833333333333333,  0.875000000000000 ]
    mass: 65.380000
    reduced_to: 1
  - symbol: Zn # 35
    coordinates: [  0.500000000000000,  0.833333333333333,  0.875000000000000 ]
    mass: 65.380000
    reduced_to: 1
  - symbol: Zn # 36
    coordinates: [  0.833333333333333,  0.833333333333333,  0.875000000000000 ]
    mass: 65.380000
    reduced_to: 1
  - symbol: Zn # 37
    coordinates: [  0.000000000000000,  0.000000000000000,  0.000000000000000 ]
    mass: 65.380000
    reduced_to: 37
  - symbol: Zn # 38
    coordinates: [  0.333333333333333,  0.000000000000000,  0.000000000000000 ]
    mass: 65.380000
    reduced_to: 37
  - symbol: Zn # 39
    coordinates: [  0.666666666666667,  0.000000000000000,  0.000000000000000 ]
    mass: 65.380000
    reduced_to: 37
  - symbol: Zn # 40
    coordinates: [  0.000000000000000,  0.333333333333333,  0.000000000000000 ]
    mass: 65.380000
    reduced_to: 37
  - symbol: Zn # 41
    coordinates: [  0.333333333333333,  0.333333333333333,  0.000000000000000 ]
    mass: 65.380000
    reduced_to: 37
  - symbol: Zn # 42
    coordinates: [  0.666666666666667,  0.333333333333333,  0.000000000000000 ]
    mass: 65.380000
    reduced_to: 37
  - symbol: Zn # 43
    coordinates: [  0.000000000000000,  0.666666666666667,  0.000000000000000 ]
    mass: 65.380000
    reduced_to: 37
  - symbol: Zn # 44
    coordinates: [  0.333333333333333,  0.666666666666667,  0.000000000000000 ]
    mass: 65.380000
    reduced_to: 37
  - symbol: Zn # 45
    coordinates: [  0.666666666666667,  0.666666666666667,  0.000000000000000 ]
    mass: 65.380000
    reduced_to: 37
  - symbol: Zn # 46
    coordinates: [  0.000000000000000,  0.000000000000000,  0.250000000000000 ]
    mass: 65.380000
    reduced_to: 37
  - symbol: Zn # 47
    coordinates: [  0.333333333333333,  0.000000000000000,  0.250000000000000 ]
    mass: 65.380000
    reduced_to: 37
  - symbol: Zn # 48
    coordinates: [  0.666666666666667,  0.000000000000000,  0.250000000000000 ]
    mass: 65.380000
    reduced_to: 37
  - symbol: Zn # 49
    coordinates: [  0.000000000000000,  0.333333333333333,  0.250000000000000 ]
    mass: 65.380000
    reduced_to: 37
  - symbol: Zn # 50
    coordinates: [  0.333333333333333,  0.333333333333333,  0.250000000000000 ]
    mass: 65.380000
    reduced_to: 37
  - symbol: Zn # 51
    coordinates: [  0.666666666666667,  0.333333333333333,  0.250000000000000 ]
    mass: 65.380000
    reduced_to: 37
  - symbol: Zn # 52
    coordinates: [  0.000000000000000,  0.666666666666667,  0.250000000000000 ]
    mass: 65.380000
    reduced_to: 37
  - symbol: Zn # 53
    coordinates: [  0.333333333333333,  0.666666666666667,  0.250000000000000 ]
    mass: 65.380000
    reduced_to: 37
  - symbol: Zn # 54
    coordinates: [  0.666666666666667,  0.666666666666667,  0.250000000000000 ]
    mass: 65.380000
    reduced_to: 37
  - symbol: Zn # 55
    coordinates: [  0.000000000000000,  0.000000000000000,  0.500000000000000 ]
    mass: 65.380000
    reduced_to: 37
  - symbol: Zn # 56
    coordinates: [  0.333333333333333,  0.000000000000000,  0.500000000000000 ]
    mass: 65.380000
    reduced_to: 37
  - symbol: Zn # 57
    coordinates: [  0.666666666666667,  0.000000000000000,  0.500000000000000 ]
    mass: 65.380000
    reduced_to: 37
  - symbol: Zn # 58
    coordinates: [  0.000000000000000,  0.333333333333333,  0.500000000000000 ]
    mass: 65.380000
    reduced_to: 37
  - symbol: Zn # 59
    coordinates: [  0.333333333333333,  0.333333333333333,  0.500000000000000 ]
    mass: 65.380000
    reduced_to: 37
  - symbol: Zn # 60
    coordinates: [  0.666666666666667,  0.333333333333333,  0.500000000000000 ]
    mass: 65.380000
    reduced_to: 37
  - symbol: Zn # 61
    coordinates: [  0.000000000000000,  0.666666666666667,  0.500000000000000 ]
    mass: 65.380000
    reduced_to: 37
  - symbol: Zn # 62
    coordinates: [  0.333333333333333,  0.666666666666667,  0.500000000000000 ]
    mass: 65.380000
    reduced_to: 37
  - symbol: Zn # 63
    coordinates: [  0.666666666666667,  0.666666666666667,  0.500000000000000 ]
    mass: 65.380000
    reduced_to: 37
  - symbol: Zn # 64
    coordinates: [  0.000000000000000,  0.000000000000000,  0.750000000000000 ]
    mass: 65.380000
    reduced_to: 37
  - symbol: Zn # 65
    coordinates: [  0.333333333333333,  0.000000000000000,  0.750000000000000 ]
    mass: 65.380000
    reduced_to: 37
  - symbol: Zn # 66
    coordinates: [  0.666666666666667,  0.000000000000000,  0.750000000000000 ]
    mass: 65.380000
    reduced_to: 37
  - symbol: Zn # 67
    coordinates: [  0.000000000000000,  0.333333333333333,  0.750000000000000 ]
    mass: 65.380000
    reduced_to: 37
  - symbol: Zn # 68
    coordinates: [  0.333333333333333,  0.333333333333333,  0.750000000000000 ]
    mass: 65.380000
    reduced_to: 37
  - symbol: Zn # 69
    coordinates: [  0.666666666666667,  0.333333333333333,  0.750000000000000 ]
    mass: 65.380000
    reduced_to: 37
  - symbol: Zn # 70
    coordinates: [  0.000000000000000,  0.666666666666667,  0.750000000000000 ]
    mass: 65.380000
    reduced_to: 37
  - symbol: Zn # 71
    coordinates: [  0.333333333333333,  0.666666666666667,  0.750000000000000 ]
    mass: 65.380000
    reduced_to: 37
  - symbol: Zn # 72
    coordinates: [  0.666666666666667,  0.666666666666667,  0.750000000000000 ]
    mass: 65.380000
    reduced_to: 37
  - symbol: F # 73
    coordinates: [  0.232087656931791,  0.232087656931791,  0.000000000000000 ]
    mass: 18.998403
    reduced_to: 73
  - symbol: F # 74
    coordinates: [  0.565420990265124,  0.232087656931791,  0.000000000000000 ]
    mass: 18.998403
    reduced_to: 73
  - symbol: F # 75
    coordinates: [  0.898754323598458,  0.232087656931791,  0.000000000000000 ]
    mass: 18.998403
    reduced_to: 73
  - symbol: F # 76
    coordinates: [  0.232087656931791,  0.565420990265124,  0.000000000000000 ]
    mass: 18.998403
    reduced_to: 73
  - symbol: F # 77
    coordinates: [  0.565420990265124,  0.565420990265124,  0.000000000000000 ]
    mass: 18.998403
    reduced_to: 73
  - symbol: F # 78
    coordinates: [  0.898754323598458,  0.565420990265124,  0.000000000000000 ]
    mass: 18.998403
    reduced_to: 73
  - symbol: F # 79
    coordinates: [  0.232087656931791,  0.898754323598458,  0.000000000000000 ]
    mass: 18.998403
    reduced_to: 73
  - symbol: F # 80
    coordinates: [  0.565420990265124,  0.898754323598458,  0.000000000000000 ]
    mass: 18.998403
    reduced_to: 73
  - symbol: F # 81
    coordinates: [  0.898754323598458,  0.898754323598458,  0.000000000000000 ]
    mass: 18.998403
    reduced_to: 73
  - symbol: F # 82
    coordinates: [  0.232087656931791,  0.232087656931791,  0.250000000000000 ]
    mass: 18.998403
    reduced_to: 73
  - symbol: F # 83
    coordinates: [  0.565420990265124,  0.232087656931791,  0.250000000000000 ]
    mass: 18.998403
    reduced_to: 73
  - symbol: F # 84
    coordinates: [  0.898754323598458,  0.232087656931791,  0.250000000000000 ]
    mass: 18.998403
    reduced_to: 73
  - symbol: F # 85
    coordinates: [  0.232087656931791,  0.565420990265124,  0.250000000000000 ]
    mass: 18.998403
    reduced_to: 73
  - symbol: F # 86
    coordinates: [  0.565420990265124,  0.565420990265124,  0.250000000000000 ]
    mass: 18.998403
    reduced_to: 73
  - symbol: F # 87
    coordinates: [  0.898754323598458,  0.565420990265124,  0.250000000000000 ]
    mass: 18.998403
    reduced_to: 73
  - symbol: F # 88
    coordinates: [  0.232087656931791,  0.898754323598458,  0.250000000000000 ]
    mass: 18.998403
    reduced_to: 73
  - symbol: F # 89
    coordinates: [  0.565420990265124,  0.898754323598458,  0.250000000000000 ]
    mass: 18.998403
    reduced_to: 73
  - symbol: F # 90
    coordinates: [  0.898754323598458,  0.898754323598458,  0.250000000000000 ]
    mass: 18.998403
    reduced_to: 73
  - symbol: F # 91
    coordinates: [  0.232087656931791,  0.232087656931791,  0.500000000000000 ]
    mass: 18.998403
    reduced_to: 73
  - symbol: F # 92
    coordinates: [  0.565420990265124,  0.232087656931791,  0.500000000000000 ]
    mass: 18.998403
    reduced_to: 73
  - symbol: F # 93
    coordinates: [  0.898754323598458,  0.232087656931791,  0.500000000000000 ]
    mass: 18.998403
    reduced_to: 73
  - symbol: F # 94
    coordinates: [  0.232087656931791,  0.565420990265124,  0.500000000000000 ]
    mass: 18.998403
    reduced_to: 73
  - symbol: F # 95
    coordinates: [  0.565420990265124,  0.565420990265124,  0.500000000000000 ]
    mass: 18.998403
    reduced_to: 73
  - symbol: F # 96
    coordinates: [  0.898754323598458,  0.565420990265124,  0.500000000000000 ]
    mass: 18.998403
    reduced_to: 73
  - symbol: F # 97
    coordinates: [  0.232087656931791,  0.898754323598458,  0.500000000000000 ]
    mass: 18.998403
    reduced_to: 73
  - symbol: F # 98
    coordinates: [  0.565420990265124,  0.898754323598458,  0.500000000000000 ]
    mass: 18.998403
    reduced_to: 73
  - symbol: F # 99
    coordinates: [  0.898754323598458,  0.898754323598458,  0.500000000000000 ]
    mass: 18.998403
    reduced_to: 73
  - symbol: F # 100
    coordinates: [  0.232087656931791,  0.232087656931791,  0.750000000000000 ]
    mass: 18.998403
    reduced_to: 73
  - symbol: F # 101
    coordinates: [  0.565420990265124,  0.232087656931791,  0.750000000000000 ]
    mass: 18.998403
    reduced_to: 73
  - symbol: F # 102
    coordinates: [  0.898754323598458,  0.232087656931791,  0.750000000000000 ]
    mass: 18.998403
    reduced_to: 73
  - symbol: F # 103
    coordinates: [  0.232087656931791,  0.565420990265124,  0.750000000000000 ]
    mass: 18.998403
    reduced_to: 73
  - symbol: F # 104
    coordinates: [  0.565420990265124,  0.565420990265124,  0.750000000000000 ]
    mass: 18.998403
    reduced_to: 73
  - symbol: F # 105
    coordinates: [  0.898754323598458,  0.565420990265124,  0.750000000000000 ]
    mass: 18.998403
    reduced_to: 73
  - symbol: F # 106
    coordinates: [  0.232087656931791,  0.898754323598458,  0.750000000000000 ]
    mass: 18.998403
    reduced_to: 73
  - symbol: F # 107
    coordinates: [  0.565420990265124,  0.898754323598458,  0.750000000000000 ]
    mass: 18.998403
    reduced_to: 73
  - symbol: F # 108
    coordinates: [  0.898754323598458,  0.898754323598458,  0.750000000000000 ]
    mass: 18.998403
    reduced_to: 73
  - symbol: F # 109
    coordinates: [  0.065420990265124,  0.267912343068209,  0.125000000000000 ]
    mass: 18.998403
    reduced_to: 109
  - symbol: F # 110
    coordinates: [  0.398754323598458,  0.267912343068209,  0.125000000000000 ]
    mass: 18.998403
    reduced_to: 109
  - symbol: F # 111
    coordinates: [  0.732087656931791,  0.267912343068209,  0.125000000000000 ]
    mass: 18.998403
    reduced_to: 109
  - symbol: F # 112
    coordinates: [  0.065420990265124,  0.601245676401542,  0.125000000000000 ]
    mass: 18.998403
    reduced_to: 109
  - symbol: F # 113
    coordinates: [  0.398754323598458,  0.601245676401542,  0.125000000000000 ]
    mass: 18.998403
    reduced_to: 109
  - symbol: F # 114
    coordinates: [  0.732087656931791,  0.601245676401542,  0.125000000000000 ]
    mass: 18.998403
    reduced_to: 109
  - symbol: F # 115
    coordinates: [  0.065420990265124,  0.934579009734876,  0.125000000000000 ]
    mass: 18.998403
    reduced_to: 109
  - symbol: F # 116
    coordinates: [  0.398754323598458,  0.934579009734876,  0.125000000000000 ]
    mass: 18.998403
    reduced_to: 109
  - symbol: F # 117
    coordinates: [  0.732087656931791,  0.934579009734876,  0.125000000000000 ]
    mass: 18.998403
    reduced_to: 109
  - symbol: F # 118
    coordinates: [  0.065420990265124,  0.267912343068209,  0.375000000000000 ]
    mass: 18.998403
    reduced_to: 109
  - symbol: F # 119
    coordinates: [  0.398754323598458,  0.267912343068209,  0.375000000000000 ]
    mass: 18.998403
    reduced_to: 109
  - symbol: F # 120
    coordinates: [  0.732087656931791,  0.267912343068209,  0.375000000000000 ]
    mass: 18.998403
    reduced_to: 109
  - symbol: F # 121
    coordinates: [  0.065420990265124,  0.601245676401542,  0.375000000000000 ]
    mass: 18.998403
    reduced_to: 109
  - symbol: F # 122
    coordinates: [  0.398754323598458,  0.601245676401542,  0.375000000000000 ]
    mass: 18.998403
    reduced_to: 109
  - symbol: F # 123
    coordinates: [  0.732087656931791,  0.601245676401542,  0.375000000000000 ]
    mass: 18.998403
    reduced_to: 109
  - symbol: F # 124
    coordinates: [  0.065420990265124,  0.934579009734876,  0.375000000000000 ]
    mass: 18.998403
    reduced_to: 109
  - symbol: F # 125
    coordinates: [  0.398754323598458,  0.934579009734876,  0.375000000000000 ]
    mass: 18.998403
    reduced_to: 109
  - symbol: F # 126
    coordinates: [  0.732087656931791,  0.934579009734876,  0.375000000000000 ]
    mass: 18.998403
    reduced_to: 109
  - symbol: F # 127
    coordinates: [  0.065420990265124,  0.267912343068209,  0.625000000000000 ]
    mass: 18.998403
    reduced_to: 109
  - symbol: F # 128
    coordinates: [  0.398754323598458,  0.267912343068209,  0.625000000000000 ]
    mass: 18.998403
    reduced_to: 109
  - symbol: F # 129
    coordinates: [  0.732087656931791,  0.267912343068209,  0.625000000000000 ]
    mass: 18.998403
    reduced_to: 109
  - symbol: F # 130
    coordinates: [  0.065420990265124,  0.601245676401542,  0.625000000000000 ]
    mass: 18.998403
    reduced_to: 109
  - symbol: F # 131
    coordinates: [  0.398754323598458,  0.601245676401542,  0.625000000000000 ]
    mass: 18.998403
    reduced_to: 109
  - symbol: F # 132
    coordinates: [  0.732087656931791,  0.601245676401542,  0.625000000000000 ]
    mass: 18.998403
    reduced_to: 109
  - symbol: F # 133
    coordinates: [  0.065420990265124,  0.934579009734876,  0.625000000000000 ]
    mass: 18.998403
    reduced_to: 109
  - symbol: F # 134
    coordinates: [  0.398754323598458,  0.934579009734876,  0.625000000000000 ]
    mass: 18.998403
    reduced_to: 109
  - symbol: F # 135
    coordinates: [  0.732087656931791,  0.934579009734876,  0.625000000000000 ]
    mass: 18.998403
    reduced_to: 109
  - symbol: F # 136
    coordinates: [  0.065420990265124,  0.267912343068209,  0.875000000000000 ]
    mass: 18.998403
    reduced_to: 109
  - symbol: F # 137
    coordinates: [  0.398754323598458,  0.267912343068209,  0.875000000000000 ]
    mass: 18.998403
    reduced_to: 109
  - symbol: F # 138
    coordinates: [  0.732087656931791,  0.267912343068209,  0.875000000000000 ]
    mass: 18.998403
    reduced_to: 109
  - symbol: F # 139
    coordinates: [  0.065420990265124,  0.601245676401542,  0.875000000000000 ]
    mass: 18.998403
    reduced_to: 109
  - symbol: F # 140
    coordinates: [  0.398754323598458,  0.601245676401542,  0.875000000000000 ]
    mass: 18.998403
    reduced_to: 109
  - symbol: F # 141
    coordinates: [  0.732087656931791,  0.601245676401542,  0.875000000000000 ]
    mass: 18.998403
    reduced_to: 109
  - symbol: F # 142
    coordinates: [  0.065420990265124,  0.934579009734876,  0.875000000000000 ]
    mass: 18.998403
    reduced_to: 109
  - symbol: F # 143
    coordinates: [  0.398754323598458,  0.934579009734876,  0.875000000000000 ]
    mass: 18.998403
    reduced_to: 109
  - symbol: F # 144
    coordinates: [  0.732087656931791,  0.934579009734876,  0.875000000000000 ]
    mass: 18.998403
    reduced_to: 109
  - symbol: F # 145
    coordinates: [  0.101245676401542,  0.101245676401542,  0.000000000000000 ]
    mass: 18.998403
    reduced_to: 145
  - symbol: F # 146
    coordinates: [  0.434579009734876,  0.101245676401542,  0.000000000000000 ]
    mass: 18.998403
    reduced_to: 145
  - symbol: F # 147
    coordinates: [  0.767912343068209,  0.101245676401542,  0.000000000000000 ]
    mass: 18.998403
    reduced_to: 145
  - symbol: F # 148
    coordinates: [  0.101245676401542,  0.434579009734876,  0.000000000000000 ]
    mass: 18.998403
    reduced_to: 145
  - symbol: F # 149
    coordinates: [  0.434579009734876,  0.434579009734876,  0.000000000000000 ]
    mass: 18.998403
    reduced_to: 145
  - symbol: F # 150
    coordinates: [  0.767912343068209,  0.434579009734876,  0.000000000000000 ]
    mass: 18.998403
    reduced_to: 145
  - symbol: F # 151
    coordinates: [  0.101245676401542,  0.767912343068209,  0.000000000000000 ]
    mass: 18.998403
    reduced_to: 145
  - symbol: F # 152
    coordinates: [  0.434579009734876,  0.767912343068209,  0.000000000000000 ]
    mass: 18.998403
    reduced_to: 145
  - symbol: F # 153
    coordinates: [  0.767912343068209,  0.767912343068209,  0.000000000000000 ]
    mass: 18.998403
    reduced_to: 145
  - symbol: F # 154
    coordinates: [  0.101245676401542,  0.101245676401542,  0.250000000000000 ]
    mass: 18.998403
    reduced_to: 145
  - symbol: F # 155
    coordinates: [  0.434579009734876,  0.101245676401542,  0.250000000000000 ]
    mass: 18.998403
    reduced_to: 145
  - symbol: F # 156
    coordinates: [  0.767912343068209,  0.101245676401542,  0.250000000000000 ]
    mass: 18.998403
    reduced_to: 145
  - symbol: F # 157
    coordinates: [  0.101245676401542,  0.434579009734876,  0.250000000000000 ]
    mass: 18.998403
    reduced_to: 145
  - symbol: F # 158
    coordinates: [  0.434579009734876,  0.434579009734876,  0.250000000000000 ]
    mass: 18.998403
    reduced_to: 145
  - symbol: F # 159
    coordinates: [  0.767912343068209,  0.434579009734876,  0.250000000000000 ]
    mass: 18.998403
    reduced_to: 145
  - symbol: F # 160
    coordinates: [  0.101245676401542,  0.767912343068209,  0.250000000000000 ]
    mass: 18.998403
    reduced_to: 145
  - symbol: F # 161
    coordinates: [  0.434579009734876,  0.767912343068209,  0.250000000000000 ]
    mass: 18.998403
    reduced_to: 145
  - symbol: F # 162
    coordinates: [  0.767912343068209,  0.767912343068209,  0.250000000000000 ]
    mass: 18.998403
    reduced_to: 145
  - symbol: F # 163
    coordinates: [  0.101245676401542,  0.101245676401542,  0.500000000000000 ]
    mass: 18.998403
    reduced_to: 145
  - symbol: F # 164
    coordinates: [  0.434579009734876,  0.101245676401542,  0.500000000000000 ]
    mass: 18.998403
    reduced_to: 145
  - symbol: F # 165
    coordinates: [  0.767912343068209,  0.101245676401542,  0.500000000000000 ]
    mass: 18.998403
    reduced_to: 145
  - symbol: F # 166
    coordinates: [  0.101245676401542,  0.434579009734876,  0.500000000000000 ]
    mass: 18.998403
    reduced_to: 145
  - symbol: F # 167
    coordinates: [  0.434579009734876,  0.434579009734876,  0.500000000000000 ]
    mass: 18.998403
    reduced_to: 145
  - symbol: F # 168
    coordinates: [  0.767912343068209,  0.434579009734876,  0.500000000000000 ]
    mass: 18.998403
    reduced_to: 145
  - symbol: F # 169
    coordinates: [  0.101245676401542,  0.767912343068209,  0.500000000000000 ]
    mass: 18.998403
    reduced_to: 145
  - symbol: F # 170
    coordinates: [  0.434579009734876,  0.767912343068209,  0.500000000000000 ]
    mass: 18.998403
    reduced_to: 145
  - symbol: F # 171
    coordinates: [  0.767912343068209,  0.767912343068209,  0.500000000000000 ]
    mass: 18.998403
    reduced_to: 145
  - symbol: F # 172
    coordinates: [  0.101245676401542,  0.101245676401542,  0.750000000000000 ]
    mass: 18.998403
    reduced_to: 145
  - symbol: F # 173
    coordinates: [  0.434579009734876,  0.101245676401542,  0.750000000000000 ]
    mass: 18.998403
    reduced_to: 145
  - symbol: F # 174
    coordinates: [  0.767912343068209,  0.101245676401542,  0.750000000000000 ]
    mass: 18.998403
    reduced_to: 145
  - symbol: F # 175
    coordinates: [  0.101245676401542,  0.434579009734876,  0.750000000000000 ]
    mass: 18.998403
    reduced_to: 145
  - symbol: F # 176
    coordinates: [  0.434579009734876,  0.434579009734876,  0.750000000000000 ]
    mass: 18.998403
    reduced_to: 145
  - symbol: F # 177
    coordinates: [  0.767912343068209,  0.434579009734876,  0.750000000000000 ]
    mass: 18.998403
    reduced_to: 145
  - symbol: F # 178
    coordinates: [  0.101245676401542,  0.767912343068209,  0.750000000000000 ]
    mass: 18.998403
    reduced_to: 145
  - symbol: F # 179
    coordinates: [  0.434579009734876,  0.767912343068209,  0.750000000000000 ]
    mass: 18.998403
    reduced_to: 145
  - symbol: F # 180
    coordinates: [  0.767912343068209,  0.767912343068209,  0.750000000000000 ]
    mass: 18.998403
    reduced_to: 145
  - symbol: F # 181
    coordinates: [  0.267912343068209,  0.065420990265124,  0.125000000000000 ]
    mass: 18.998403
    reduced_to: 181
  - symbol: F # 182
    coordinates: [  0.601245676401542,  0.065420990265124,  0.125000000000000 ]
    mass: 18.998403
    reduced_to: 181
  - symbol: F # 183
    coordinates: [  0.934579009734876,  0.065420990265124,  0.125000000000000 ]
    mass: 18.998403
    reduced_to: 181
  - symbol: F # 184
    coordinates: [  0.267912343068209,  0.398754323598458,  0.125000000000000 ]
    mass: 18.998403
    reduced_to: 181
  - symbol: F # 185
    coordinates: [  0.601245676401542,  0.398754323598458,  0.125000000000000 ]
    mass: 18.998403
    reduced_to: 181
  - symbol: F # 186
    coordinates: [  0.934579009734876,  0.398754323598458,  0.125000000000000 ]
    mass: 18.998403
    reduced_to: 181
  - symbol: F # 187
    coordinates: [  0.267912343068209,  0.732087656931791,  0.125000000000000 ]
    mass: 18.998403
    reduced_to: 181
  - symbol: F # 188
    coordinates: [  0.601245676401542,  0.732087656931791,  0.125000000000000 ]
    mass: 18.998403
    reduced_to: 181
  - symbol: F # 189
    coordinates: [  0.934579009734876,  0.732087656931791,  0.125000000000000 ]
    mass: 18.998403
    reduced_to: 181
  - symbol: F # 190
    coordinates: [  0.267912343068209,  0.065420990265124,  0.375000000000000 ]
    mass: 18.998403
    reduced_to: 181
  - symbol: F # 191
    coordinates: [  0.601245676401542,  0.065420990265124,  0.375000000000000 ]
    mass: 18.998403
    reduced_to: 181
  - symbol: F # 192
    coordinates: [  0.934579009734876,  0.065420990265124,  0.375000000000000 ]
    mass: 18.998403
    reduced_to: 181
  - symbol: F # 193