# epsilon and Z* of atoms 1 2
   2.25339469    0.00000000   -0.00000000   -0.00000000    2.25339469    0.00000000   -0.00000000   -0.00000000    2.25344437 
   3.99006773    0.00000000   -0.00000000    0.00000000    3.99006773    0.00000000   -0.00000000    0.00000000    3.99023773 
  -1.67338086   -0.59471399   -0.84109478   -0.59471399   -0.98666429   -0.48560630   -0.84107419   -0.48559441   -1.33007924 
